416
Lattice="14.868737130211768 0.0 0.0 0.0 14.868737130211768 0.0 0.0 0.0 14.868737130211768" Properties=species:S:1:pos:R:3:DFT_forces:R:3:forces:R:3 label=eos ionic_step=1.0 config=222503 DFT_energy=-1733.2274 DFT_stress="-0.0004000495246145874 -0.0013532964512705803 0.0010184894781559706 -0.000662567385006696 0.001465506386011839 -6.699012010358274e-05" energy=-2045025.5 stress="559.8588256835938 567.5687255859375 357.4060363769531 567.5687255859375 459.7575378417969 -76.9433364868164 357.4060363769531 -76.9433364868164 402.0941162109375" pbc="T T T"
Li       5.41310753       8.38352033       2.72762568      -0.00570600       0.00037700       0.00613900    1243.66137695     345.90859985     225.46914673
Li       6.98723860       6.25236773      13.87954729      -0.00570600       0.00037700       0.00613900      50.77603912     -26.07920074      99.59902954
Li       5.37848005      16.38335708       2.81361271      -0.00570600       0.00037700       0.00613900    -603.72027588     292.41830444    -102.18028259
Li       7.08027050      13.42667466      13.05626999      -0.00570600       0.00037700       0.00613900     -34.85954285      78.27614594     136.54437256
Li      14.20674285       6.86672142       4.54697181      -0.00570600       0.00037700       0.00613900 -384585.43750000 -1360499.12500000 -1062137.75000000
Li      13.15595216       8.10025476      10.18701530      -0.00570600       0.00037700       0.00613900    -166.30436707     112.88412476     735.54406738
Li      16.40215963      16.06903145       5.06210984      -0.00570600       0.00037700       0.00613900    1475.03222656    6396.09765625   -6327.32275391
Li      12.97163746      15.80460541       8.32470268      -0.00570600       0.00037700       0.00613900    -203.51132202    -314.04541016      34.44578552
Li       2.07763484       6.76925760       4.89573535       0.00095700      -0.00427500      -0.00468900 -541078.75000000 -621180.68750000 -292726.81250000
Li       3.05482641       4.48447008      10.14880308       0.00095700      -0.00427500      -0.00468900       0.29869366     100.28763580     224.62023926
Li       0.94559472      11.19139117       1.58259534       0.00095700      -0.00427500      -0.00468900    -554.17218018     736.77264404    -568.62298584
Li       1.83427776      10.53602665      10.35704293       0.00095700      -0.00427500      -0.00468900      -9.99289894      94.09982300      86.34706116
Li       8.36317931       3.32199767       2.07079025       0.00095700      -0.00427500      -0.00468900      -0.94887543     -62.97821045     230.80039978
Li       8.20772845       2.97956033      11.27896290       0.00095700      -0.00427500      -0.00468900    -103.00924683      41.26994324     -42.27843475
Li       7.97830397      10.93136897       1.59171903       0.00095700      -0.00427500      -0.00468900      81.60355377      21.59965134     420.49688721
Li       9.80894450      11.95775093      10.36683443       0.00095700      -0.00427500      -0.00468900      -9.38530922     136.44572449      -6.76080322
Li       6.03377842       3.83726319       7.36938952      -0.00148300      -0.00335200      -0.00655700     129.01667786    -180.33738708     102.38674164
Li       6.64456249       1.79063404      14.61448042      -0.00148300      -0.00335200      -0.00655700     -34.73586655      10.19808960      34.43355560
Li       5.53766385       8.38412037       7.67032480      -0.00148300      -0.00335200      -0.00655700     639.29528809     399.34136963     268.91668701
Li       9.89246185       7.60610335      16.21086470      -0.00148300      -0.00335200      -0.00655700     391.44448853     423.16156006    -266.74804688
Li      13.03401305       3.44301401       7.99014769      -0.00148300      -0.00335200      -0.00655700   -9206.05664062   -9114.95996094   24121.46289062
Li      12.34989036       3.09145875      14.38774741      -0.00148300      -0.00335200      -0.00655700     200.26864624    -868.51519775     514.63745117
Li      12.72401596      10.89723122       9.25294907      -0.00148300      -0.00335200      -0.00655700     207.46337891    -297.55834961    -236.76142883
Li      13.08606176       9.88915313      14.51047918      -0.00148300      -0.00335200      -0.00655700     259.25131226      52.52346420      -2.47748566
Li       3.68865386      -2.31461086      -0.14911573      -0.00138400       0.00561200      -0.00034400      14.86262131      -4.03559875     -71.43046570
Li       1.94808038       0.67066450       6.45740488      -0.00138400       0.00561200      -0.00034400     261.58728027   -2767.51928711    1540.68273926
Li       0.78715016       8.01858089      -1.62778522      -0.00138400       0.00561200      -0.00034400     -59.01523972     244.24192810    -896.61694336
Li       0.37205696       7.22105210       6.93573313      -0.00138400       0.00561200      -0.00034400   48538.25781250  -48585.24218750 -151654.00000000
Li      10.90053049       1.67141570      -0.11867687      -0.00138400       0.00561200      -0.00034400      56.44700241     149.10592651     -56.90978241
Li       9.10597306       0.87541159       6.20167702      -0.00138400       0.00561200      -0.00034400       6.45387554      45.73081970       8.50108337
Li       9.09248663       8.39171572      -1.11441792      -0.00138400       0.00561200      -0.00034400    -322.47998047      83.66944885    -100.88940430
Li       8.54255342       7.96065340       6.39024182      -0.00138400       0.00561200      -0.00034400     103.49113464      10.60751915     -92.88217926
Li       3.01172694       2.50768449       0.67357187      -0.00016300       0.00090400      -0.00170100   -1072.14453125    -375.30444336    2103.55981445
Li       4.30115317       1.49053057       7.70397596      -0.00016300       0.00090400      -0.00170100     265.91137695    -270.23760986     182.34373474
Li       3.83928564       7.84839903       2.97033549      -0.00016300       0.00090400      -0.00170100   17532.31054688   -3892.22070312   11942.70019531
Li       3.91049866       8.70210577       8.51547495      -0.00016300       0.00090400      -0.00170100     857.03015137      20.71280479    1091.11828613
Li      13.44161445       4.19359454       4.51616260      -0.00016300       0.00090400      -0.00170100 -360055.65625000 -140466.95312500   82735.73437500
Li      11.89494825       1.52997794      10.66769118      -0.00016300       0.00090400      -0.00170100     -50.42871094    -114.67695618     117.88594055
Li      11.23833999       8.82621154       1.57933975      -0.00016300       0.00090400      -0.00170100    -230.75006104     -36.18560791    -301.49523926
Li      11.40805177       9.17773936       6.88097621      -0.00016300       0.00090400      -0.00170100     579.95684814    1000.48413086    -561.90704346
Li       2.38452947      -2.98552438      -1.76009481      -0.00164200      -0.00005200       0.00064700      -9.66420746     -24.63105392     120.17932892
Li       1.05469262       0.74345986      10.02525010      -0.00164200      -0.00005200       0.00064700      -1.15523338     -66.30996704     126.26623535
Li       2.23794045      10.32013576       1.65962048      -0.00164200      -0.00005200       0.00064700    1723.16796875    4402.16845703   -2111.88183594
Li       2.60698730       8.11565804       9.51898062      -0.00164200      -0.00005200       0.00064700   -1312.43237305     -82.91350555    -798.35302734
Li      10.57509849       1.49088230       1.12688290      -0.00164200      -0.00005200       0.00064700    -212.88574219    -803.76007080     247.99278259
Li       9.33185808       1.75996400      10.30907078      -0.00164200      -0.00005200       0.00064700     -44.56057739     -50.81015778     -44.10944366
Li      10.24452418      10.28921362       1.58841162      -0.00164200      -0.00005200       0.00064700     -13.64186478      61.09829712     218.92858887
Li       9.60526459       9.84028318       9.51613088      -0.00164200      -0.00005200       0.00064700      44.85547256     194.99749756     -42.92538071
Li       6.49059045       6.63322266       0.27127931      -0.00284200      -0.00375900      -0.00212200    -108.36489868     -69.52416992     -57.16775513
Li       6.68558062       6.71822737       9.26148121      -0.00284200      -0.00375900      -0.00212200      22.48788452     363.86065674       4.57595825
Li      10.12298640      14.39462029       1.50948148      -0.00284200      -0.00375900      -0.00212200     377.59609985    1108.69238281    -453.18762207
Li       6.09642731      13.89107983       9.50417823      -0.00284200      -0.00375900      -0.00212200     102.81500244       4.65943718      -2.20505905
Li      15.27894348       5.11850798       3.61348932      -0.00284200      -0.00375900      -0.00212200  802122.37500000 -196835.48437500  801167.56250000
Li      15.07172768       5.35825630       6.33273677      -0.00284200      -0.00375900      -0.00212200  102852.00781250  -27447.90039062  390187.78125000
Li      13.71405100      14.31383547       1.67826631      -0.00284200      -0.00375900      -0.00212200      26.39363098     112.78891754     -34.31472397
Li      14.93190674      13.73032325       7.93116435      -0.00284200      -0.00375900      -0.00212200      31.04103088    -422.70037842     177.00459290
Li       4.34301575       1.51749822      -0.39878427       0.00289800      -0.00427900       0.00060100      46.83973694    -100.27207184     -35.40945435
Li       1.13102725       2.10013311       7.95890884       0.00289800      -0.00427900       0.00060100    3831.50366211  -12313.52636719   10111.29980469
Li       1.41950796       9.57542156       0.35923538       0.00289800      -0.00427900       0.00060100     440.96520996    1316.16906738   -2103.77172852
Li       1.01632393       9.55931504       8.80739603       0.00289800      -0.00427900       0.00060100    -357.11923218    -282.08612061    -445.64166260
Li       9.47314837      -0.54925271       0.23269558       0.00289800      -0.00427900       0.00060100      50.29501724     -77.73107910    -124.70932007
Li       9.36448117       1.43878416       8.07291336       0.00289800      -0.00427900       0.00060100     -92.35881805     -24.05543518      67.53317261
Li       8.63274327       9.52177089       0.74750674       0.00289800      -0.00427900       0.00060100     215.48840332      50.20907974    -603.85498047
Li       7.75953484      10.91782979       7.59961699       0.00289800      -0.00427900       0.00060100     -63.85599136      47.58205414     -91.67805481
Li       1.93161937       4.02713290       2.36220776      -0.00149300       0.00400600      -0.00191400   85813.80468750  -35060.44921875  -25900.93945312
Li       0.07653907       2.30742390       7.13047094      -0.00149300       0.00400600      -0.00191400   -4653.89941406  -31064.57031250   26732.04882812
Li       2.60811743       7.63667426       1.23265783      -0.00149300       0.00400600      -0.00191400    3740.10327148    4502.70654297  -15120.95507812
Li       2.03105777       8.52560250       7.75624935      -0.00149300       0.00400600      -0.00191400   -2446.33666992   -4174.41552734  -13228.99414062
Li       9.90686668      -0.28782385       1.67417075      -0.00149300       0.00400600      -0.00191400      -8.70742035    -420.56695557     417.71466064
Li       9.98013377      -0.90833845      10.11488630      -0.00149300       0.00400600      -0.00191400     -21.30845642      47.90339661     -24.43292236
Li       8.78575129       8.30235054       1.53490160      -0.00149300       0.00400600      -0.00191400    -115.68460083    -341.90429688     528.60266113
Li       9.59828922       7.25449362       9.55224929      -0.00149300       0.00400600      -0.00191400     -62.63284302      43.30343628    -155.39988708
Li       8.84254446       5.94015921       0.63898550       0.00487600      -0.00667400       0.00163400     512.04638672    -238.84405518     -75.15019226
Li       7.66202182       4.45151001       8.03503149       0.00487600      -0.00667400       0.00163400     111.44132996    -211.20671082      96.34385681
Li       7.09353944      10.90846691       0.95372266       0.00487600      -0.00667400       0.00163400    -227.72798157     172.67634583    -200.77481079
Li       8.66514384       8.80248394       9.91539111       0.00487600      -0.00667400       0.00163400    -172.82650757    -329.59719849    -162.55242920
Li      14.59359186       3.43077049       1.48689401       0.00487600      -0.00667400       0.00163400   22566.69335938   25946.03710938  112960.07812500
Li      15.71577598       4.04380662       8.89643915       0.00487600      -0.00667400       0.00163400    2989.37304688   -9866.13964844   20776.16015625
Li      15.59733768      11.54988933       0.62176168       0.00487600      -0.00667400       0.00163400     130.68035889    -115.90048981      41.70050812
Li      17.10458054      11.11153709       9.03358091       0.00487600      -0.00667400       0.00163400      25.74507713     140.67573547      53.93932343
Li       3.49557744       3.35981721       4.70338116       0.00211600      -0.00326400       0.00203100  -72388.00781250   54666.80468750  -36580.66015625
Li       1.72876172      -1.71848709       9.29320262       0.00211600      -0.00326400       0.00203100     -22.71145058    -104.98020172     -16.41536522
Li       3.80963616      11.12462578       0.32043876       0.00211600      -0.00326400       0.00203100      86.18603516     -37.13368225     -11.21255493
Li       4.84296613       9.64566097      10.54574518       0.00211600      -0.00326400       0.00203100     -12.07000732      32.10787582       4.64489222
Li      11.53589035       2.77089346       1.45383204       0.00211600      -0.00326400       0.00203100     643.99035645     265.98437500    1518.80334473
Li      11.33608595       2.48338089      10.11548653       0.00211600      -0.00326400       0.00203100    -223.83898926    -202.34883118     252.31359863
Li      11.39921530      11.15550997       1.96268345       0.00211600      -0.00326400       0.00203100     208.73638916     201.87225342      88.25216675
Li      10.75787228       9.43802366       9.96560527       0.00211600      -0.00326400       0.00203100     125.53725433    -171.33502197     204.20828247
Li       2.03156718       6.78646600       4.74484571       0.00399500      -0.00154200      -0.00104600   53747.05468750  381332.18750000  356028.00000000
Li       3.48352921       7.74279514      10.59126983       0.00399500      -0.00154200      -0.00104600     463.83929443     111.12751770     929.84454346
Li       2.49019459      12.76087292       3.34028939       0.00399500      -0.00154200      -0.00104600      10.87001133      -5.23020935      33.13349533
Li      10.80050060      10.32061781      16.23032072       0.00399500      -0.00154200      -0.00104600      94.71280670      87.00675964      70.13095856
Li      11.67580889       5.21027014       0.47476270       0.00399500      -0.00154200      -0.00104600   -6540.59228516   -1260.56311035   -3604.47705078
Li      10.69210953       5.84021052      11.60777458       0.00399500      -0.00154200      -0.00104600      54.26723480       3.14183235      85.93248749
Li      10.63956163      14.19655853       1.03010389       0.00399500      -0.00154200      -0.00104600    -263.93652344     290.11273193     132.15026855
Li      12.60274864      12.93852903      11.45247894       0.00399500      -0.00154200      -0.00104600     178.09178162     138.53231812     -90.18981171
Li       1.42126960       5.71271001       3.46507689       0.00180600      -0.00258200      -0.00395500 -406994.75000000 -218220.65625000  -47077.51562500
Li       8.41076725      -0.47865498      13.82460333       0.00180600      -0.00258200      -0.00395500     -31.06686783     -46.76451111     -83.23597717
Li       2.00637502      10.69612102       4.07564960       0.00180600      -0.00258200      -0.00395500    1991.56799316    -503.50534058    1359.88818359
Li       2.39197951       9.08808685      14.56782009       0.00180600      -0.00258200      -0.00395500     447.01022339     957.45904541   -1714.30493164
Li      12.83349517       4.27669302       4.47615570       0.00180600      -0.00258200      -0.00395500  156647.57812500  130724.74218750    1123.27441406
Li       9.18425571       5.65957127      10.77520336       0.00180600      -0.00258200      -0.00395500    -239.75654602    -112.37651062    -113.13757324
Li      10.25598908      12.90762179       5.61265445       0.00180600      -0.00258200      -0.00395500       9.70850182     -51.04514313      37.74227524
Li      14.72937702       8.31068061      11.79663000       0.00180600      -0.00258200      -0.00395500    -107.87663269      63.52863693     204.58636475
Li       4.50008373       4.37036763       5.55994340      -0.00119200       0.00505800       0.00110300    1682.18249512    1313.54162598   -3016.69165039
Li       6.87804540       3.30088455       9.47355903      -0.00119200       0.00505800       0.00110300     116.53944397     224.24148560    -146.09442139
Li       5.47666852      12.35910895       4.54587048      -0.00119200       0.00505800       0.00110300     -53.58996582      25.15629578      78.47379303
Li       9.07777154      19.22578202       5.60931732      -0.00119200       0.00505800       0.00110300     262.48907471     -14.50115013     -44.83830643
Li      14.13806431       6.59870853       4.77948398      -0.00119200       0.00505800       0.00110300 -296376.34375000 1272757.75000000  612195.50000000
Li      13.96911470       4.96112423      11.69524679      -0.00119200       0.00505800       0.00110300      15.97685146     -72.56626892     148.77581787
Li      10.22988882      12.17136600       4.44364898      -0.00119200       0.00505800       0.00110300     -47.54320908      54.92483521      31.99206924
Li      12.68375033      11.96640022      10.27305548      -0.00119200       0.00505800       0.00110300     263.68310547      50.40801620      78.80193329
Li       5.91786919       1.49746355       5.07099581       0.00134300       0.00036300       0.00127900      74.65808868     -60.27651978      21.85828400
Li       8.08119319       3.07851645      17.56734923       0.00134300       0.00036300       0.00127900      96.38333130     276.17962646    -388.44573975
Li       5.38807055       9.24261959       4.44704001       0.00134300       0.00036300       0.00127900      35.66973877    -241.47764587     255.25347900
Li       6.37652651       9.59631777      11.38830230       0.00134300       0.00036300       0.00127900     -69.68244934      66.49166107      84.61853027
Li      13.20813320       2.01036273       4.58683454       0.00134300       0.00036300       0.00127900   36043.13281250   46431.43750000  -22246.15039062
Li      12.82867471       2.25978734      12.28150806       0.00134300       0.00036300       0.00127900      50.08399200      24.22063446      19.66562271
Li      13.59483521       8.30782674       6.74442491       0.00134300       0.00036300       0.00127900    7618.43408203  -15760.82128906  -41930.15625000
Li      13.40006096       9.72382875      12.48027546       0.00134300       0.00036300       0.00127900      -3.62828684     -45.45404053     -60.60194016
Li      -0.72066255       6.63937348       4.70307154       0.00010700      -0.00503700       0.00259400 4933659.00000000 -29405762.00000000 -7369999.50000000
Li       1.92375743       7.04869656      12.83861489       0.00010700      -0.00503700       0.00259400      52.43109131       7.96399355      95.27560425
Li       1.65357487      14.69140732       4.01790682       0.00010700      -0.00503700       0.00259400     362.88781738   -1082.77795410    -102.15203094
Li       0.05401040      12.19662742      11.44523137       0.00010700      -0.00503700       0.00259400      54.44614029     -51.94194031      33.11575317
Li       9.62464487       7.47339831       4.32323049       0.00010700      -0.00503700       0.00259400     -63.40936279     581.14282227    -139.34642029
Li       9.94321451       7.87326982      12.30973117       0.00010700      -0.00503700       0.00259400      96.39569092    -433.32992554    -301.94967651
Li      10.38219165      15.39133079       4.16252893       0.00010700      -0.00503700       0.00259400      88.07606506     246.56979370     -67.20137024
Li      10.43633714      15.90374861      13.40232700       0.00010700      -0.00503700       0.00259400      -5.31377649     -55.30088425      -0.18603516
Li       3.47317760       7.22365945       7.09472967      -0.00703800       0.00249700      -0.00063200    7200.32373047   22895.23046875   -2769.47558594
Li       2.76682340       8.97317227      16.31582996      -0.00703800       0.00249700      -0.00063200    1756.26379395    1940.52905273   -3020.76000977
Li       3.93057972      14.41648266       5.99082296      -0.00703800       0.00249700      -0.00063200     -11.54004478     -87.00282288      -4.66963577
Li       1.10737446      17.38872905      12.35264236      -0.00703800       0.00249700      -0.00063200     -13.01490211      32.76731873      48.44464874
Li      12.23690134       6.55045491       5.36996192      -0.00703800       0.00249700      -0.00063200 -107758.04687500   -3855.79272461     693.16455078
Li      10.58756066       7.85682243      14.57560084      -0.00703800       0.00249700      -0.00063200     -54.36643982     -42.16767120     780.33843994
Li      11.23609415      15.58682601       4.72432445      -0.00703800       0.00249700      -0.00063200     101.22061157     547.53936768    -283.12118530
Li       8.23136488      15.02127210      15.56792114      -0.00703800       0.00249700      -0.00063200    -149.44000244       1.86342716       3.59137344
Li       3.25220436       2.08075035       5.81231046      -0.00252500       0.00403200      -0.00153800     945.55749512    1236.08935547   -3023.09960938
Li       4.06766928       4.73167291      12.47079242      -0.00252500       0.00403200      -0.00153800    -202.53082275      65.94928741     166.98432922
Li       3.81233816       9.07863584       5.79718460      -0.00252500       0.00403200      -0.00153800  -17640.00390625  -23024.94531250  -12307.44726562
Li       3.59772459       9.85200638      11.62329070      -0.00252500       0.00403200      -0.00153800      -7.98590279      20.38114929      61.07780838
Li      11.15639745       1.40967161       6.12163575      -0.00252500       0.00403200      -0.00153800      13.05133057     509.89129639    -613.56506348
Li      10.38597739       1.78789297      11.66947174      -0.00252500       0.00403200      -0.00153800     -16.74661064     -36.27974701       1.40104246
Li      10.26714212       8.84903712       5.82038814      -0.00252500       0.00403200      -0.00153800     711.85235596      88.65809631    -596.60235596
Li      10.77325209       9.42503085      13.08117727      -0.00252500       0.00403200      -0.00153800     191.96470642     342.32666016     -39.85290909
Li       3.24241104       1.34583597       8.33700835      -0.00079400       0.00235800       0.00083600      34.91589355     -64.10115051      85.11918640
Li       1.74574363      -1.01404445      16.14777331      -0.00079400       0.00235800       0.00083600      47.50166321     -40.90465546       6.52437973
Li       3.13829439       9.26018943       8.81004359      -0.00079400       0.00235800       0.00083600     166.80694580     517.37994385    1375.87109375
Li       3.39825927       8.69148445      17.71119694      -0.00079400       0.00235800       0.00083600   17785.26757812    6761.38037109    6766.92529297
Li      10.34015555       1.34885354       8.72713273      -0.00079400       0.00235800       0.00083600    -128.35144043    -124.00257874      27.82578278
Li       8.97606802       3.50204402      16.34323738      -0.00079400       0.00235800       0.00083600     -25.25975990    -117.03816223     163.03454590
Li      10.74132383       8.47187804       8.61948514      -0.00079400       0.00235800       0.00083600    -341.18341064     165.05819702     255.67401123
Li      10.27271432       8.72879217      16.20181394      -0.00079400       0.00235800       0.00083600     823.74645996    -621.71691895      -1.50284290
Li       6.09819540       6.67620148       4.94429101       0.00040300      -0.00135500       0.00522500     461.21691895    -887.63189697      67.11851501
Li       6.41557467       5.95981977      10.25798632       0.00040300      -0.00135500       0.00522500    -767.36968994    -268.60086060      81.49848175
Li       5.86935403      14.77255670       5.03458001       0.00040300      -0.00135500       0.00522500      55.06044006    -111.04885864     -55.71115112
Li       3.98803729      12.36170869      15.25184447       0.00040300      -0.00135500       0.00522500     237.64620972      49.52530289     -40.37013245
Li       0.54386624       4.88875338       4.01455898       0.00040300      -0.00135500       0.00522500 -1723524.50000000 1526435.87500000  720332.25000000
Li      -0.15037993       3.78144706      15.93885689       0.00040300      -0.00135500       0.00522500    8665.04687500    -317.67651367   78536.71875000
Li      -2.01341982      15.21693835       2.86362838       0.00040300      -0.00135500       0.00522500     365.37167358    1627.06030273    -154.63381958
Li      -2.22120302      13.03535723      12.25369135       0.00040300      -0.00135500       0.00522500    -213.30088806      34.54579163     -26.75426102
Li       0.31417334       3.01372300       2.67032509       0.00606900      -0.00070200      -0.00004800  -12187.97265625  -59136.20312500  -28942.37304688
Li       0.90305529       1.60499309      10.41503615       0.00606900      -0.00070200      -0.00004800     117.53414917    -339.46286011     166.17361450
Li       0.13156902       9.74153586       2.15200239       0.00606900      -0.00070200      -0.00004800     173.65515137    7892.68945312   -6003.36962891
Li       0.52387666       8.58266825      10.81854081       0.00606900      -0.00070200      -0.00004800     -74.03980255      61.52251434     141.48863220
Li       8.95006333       2.08060013       3.64905967       0.00606900      -0.00070200      -0.00004800     175.23089600     -84.90367126      11.58151817
Li       6.37568724       1.71480744       9.70649476       0.00606900      -0.00070200      -0.00004800      44.47766495     -66.43865967      20.06485367
Li       7.11908541       9.25322173       3.14796508       0.00606900      -0.00070200      -0.00004800    -414.37506104     -95.69019318      62.47402191
Li       6.48308941       8.67872837       9.96248863       0.00606900      -0.00070200      -0.00004800    -202.21118164     -39.94468307    -177.96983337
Li       0.53683146       4.78508871       4.28380027       0.00290200      -0.00004300       0.00186200 1691863.75000000 -1118881.75000000 -1618066.75000000
Li       0.57802664       6.43207848      13.42911582       0.00290200      -0.00004300       0.00186200    -250.62220764    -104.96056366   -2937.60083008
Li      -0.28729039      12.31961836       7.14978552       0.00290200      -0.00004300       0.00186200     -19.58368683    -608.80480957    -233.80715942
Li       1.33272682      15.87071440      15.26519539       0.00290200      -0.00004300       0.00186200    -933.79101562    3296.13574219    2304.53662109
Li       9.74242749       4.07913000       6.64105732       0.00290200      -0.00004300       0.00186200    -139.29237366    -133.70446777    -305.05587769
Li       8.83001458       5.23336452      13.79203589       0.00290200      -0.00004300       0.00186200     -95.54153442      -6.88378716     -59.46650696
Li       8.28640649      11.64794378       6.54148042       0.00290200      -0.00004300       0.00186200     364.60327148      12.83547974     -47.68308258
Li       7.36990672      13.45123802      13.76554904       0.00290200      -0.00004300       0.00186200     -14.75196838      31.56102371     -30.49912643
Li       6.96350758       4.04506064       7.52564985      -0.00431400       0.00443800       0.00566700     343.12619019      23.44816589     226.58100891
Li       8.08635308       6.42870179      15.48522766      -0.00431400       0.00443800       0.00566700       6.63746643     -86.93116760      77.48625183
Li       6.71879414      11.25695132       6.55880886      -0.00431400       0.00443800       0.00566700    -187.96139526      -8.62030792    -196.34806824
Li       7.05851812      11.83629480      14.50709762      -0.00431400       0.00443800       0.00566700     -33.42469025     -42.87255096       0.21259689
Li      14.79131796       2.70874671       8.06373975      -0.00431400       0.00443800       0.00566700   -1148.10620117  -15025.13867188   16169.20410156
Li      15.40213203       2.73260862      15.04833618      -0.00431400       0.00443800       0.00566700    1268.13867188   -7270.61718750   -6325.17529297
Li      14.63410441       9.05397729       5.43315187      -0.00431400       0.00443800       0.00566700   32777.22656250  -51709.35156250   20796.97656250
Li      14.28664520       9.94711165      14.88379393      -0.00431400       0.00443800       0.00566700    -636.42651367    1134.16406250    -642.25451660
Li       3.42257555       4.50130044       0.29747112       0.00185700       0.00179900      -0.00399600    3145.59765625   -1137.64160156    -839.38421631
Li       3.67363954       5.97951545       8.16981643       0.00185700       0.00179900      -0.00399600    7010.57324219    -889.10620117    8367.42578125
Li       1.27706840       3.22359145      -2.46910414       0.00185700       0.00179900      -0.00399600    -102.90432739      -1.83156395    -113.97186279
Li       4.05748407      11.02411774       7.55373457       0.00185700       0.00179900      -0.00399600      96.90782166     228.53848267     -15.80902100