416
Lattice="10.603398537013355 0.0 0.0 0.0 10.603398537013355 0.0 0.0 0.0 10.603398537013355" Properties=species:S:1:pos:R:3:DFT_forces:R:3:forces:R:3 label=eos ionic_step=1.0 config=222503 DFT_energy=-1733.2274 DFT_stress="-0.0004000495246145874 -0.0013532964512705803 0.0010184894781559706 -0.000662567385006696 0.001465506386011839 -6.699012010358274e-05" energy=48167.4375 stress="-1714.60302734375 356.6848449707031 -3.710937976837158 356.6848449707031 -1652.8443603515625 7.770598888397217 -3.710937976837158 7.770598888397217 -1937.6248779296875" pbc="T T T"
Li       4.01616870       3.26613911       0.56132741      -0.00570600       0.00037700       0.00613900    4219.83886719   -5385.74560547    1081.37280273
Li       2.73305565       2.64167168       6.84428700      -0.00570600       0.00037700       0.00613900    1949.71997070    6895.57958984    3148.65527344
Li       3.74117194       7.81004638       1.42376698      -0.00570600       0.00037700       0.00613900    2473.71411133   -6983.31347656    5033.88867188
Li       2.77567112       8.77286938       8.67281070      -0.00570600       0.00037700       0.00613900     104.35412598    1904.47241211    -989.48260498
Li       7.97093303       4.19137638       1.93187749      -0.00570600       0.00037700       0.00613900  -12159.52636719  -16658.62109375    2990.37036133
Li       8.48779716       2.87156305       6.40044416      -0.00570600       0.00037700       0.00613900   -7465.04101562    3641.38769531   -4391.11523438
Li       9.72945682       9.73018389       1.18200144      -0.00570600       0.00037700       0.00613900 18429346.00000000 -42319416.00000000 46577728.00000000
Li       8.58081554       8.83907294       7.42838659      -0.00570600       0.00037700       0.00613900   25846.59375000  -29388.00195312   -6941.36816406
Li       1.19587080       2.68469556       2.35559406       0.00095700      -0.00427500      -0.00468900    3008.13452148    4147.95019531   -1029.65014648
Li       2.85768968       4.50930088       8.99525227       0.00095700      -0.00427500      -0.00468900  -11838.73437500  -14457.83789062    4064.71728516
Li       1.43794798       9.12528155       2.81359701       0.00095700      -0.00427500      -0.00468900    5329.35400391   -6323.47314453    6653.73779297
Li       1.34153900       8.15954157       7.53231093       0.00095700      -0.00427500      -0.00468900    3091.13574219   -3441.27050781    1784.11547852
Li       7.83907299       3.07987316       1.63749866       0.00095700      -0.00427500      -0.00468900  -32201.54492188   12526.03515625  -21798.59765625
Li       6.62210094       3.07422110       6.29903484       0.00095700      -0.00427500      -0.00468900    7684.80224609   -5762.15234375    9912.49902344
Li       7.02185897       8.79059846       1.89851957       0.00095700      -0.00427500      -0.00468900   26161.58984375  -11247.95117188  -13047.04101562
Li       8.00286208       8.13074373       6.79659814       0.00095700      -0.00427500      -0.00468900  -12289.32031250    7286.22607422    -471.32983398
Li       2.38527955       2.94407009       5.25239080      -0.00148300      -0.00335200      -0.00655700   -3343.51367188    3371.42602539   -3211.98510742
Li       2.08886005       4.72711862      11.13907171      -0.00148300      -0.00335200      -0.00655700   -4242.25000000    2182.30493164       5.65478516
Li       1.42323388       9.20484098       4.15012267      -0.00148300      -0.00335200      -0.00655700   -1257.19543457   -3855.06152344    7158.79931641
Li       1.59925193       9.15287835       9.91718864      -0.00148300      -0.00335200      -0.00655700   -5563.58398438    3195.92773438    2691.93334961
Li       7.53104614       4.66758135       3.44722948      -0.00148300      -0.00335200      -0.00655700   -4779.94335938    8365.91406250   15126.43554688
Li       5.94797811       5.41206466       8.74762969      -0.00148300      -0.00335200      -0.00655700 -154155.71875000 -747919.25000000 -747812.12500000
Li       5.18928116       9.14035697       3.11883395      -0.00148300      -0.00335200      -0.00655700   12730.69335938   -3382.86694336   18888.63476562
Li       5.95135123       9.15706781       8.90507395      -0.00148300      -0.00335200      -0.00655700   -1762.09191895    5070.85253906     336.89624023
Li       1.45853725      -0.36556571       1.47519146      -0.00138400       0.00561200      -0.00034400    9983.36328125   10873.59375000     732.26660156
Li       1.91864121       1.90643672       7.06461023      -0.00138400       0.00561200      -0.00034400   11526.45117188  -19053.25781250    -816.43212891
Li       1.82058318       5.34282451       0.28276603      -0.00138400       0.00561200      -0.00034400   -8962.08886719    -459.23937988   -5121.56738281
Li       1.61779069       5.17312953       5.25559992      -0.00138400       0.00561200      -0.00034400   -2410.15332031     990.15063477   -7854.96044922
Li       7.80815578       0.63510744       1.03411523      -0.00138400       0.00561200      -0.00034400 -140803.37500000 -727534.00000000 -408956.03125000
Li       8.16919223       0.23966787       4.63418820      -0.00138400       0.00561200      -0.00034400    4970.39013672   -3386.74536133   26225.01757812
Li       7.16314801       6.08604492       0.53885925      -0.00138400       0.00561200      -0.00034400   -3435.70581055    -621.98266602   -8908.45800781
Li       7.44514725       5.77843150       4.75718017      -0.00138400       0.00561200      -0.00034400   -4121.20361328   -2084.24829102    4492.74560547
Li       2.93698651       2.12377941       1.76772056      -0.00016300       0.00090400      -0.00170100     574.54541016    6946.69726562     405.50613403
Li       3.33273757       2.69075013       5.16188379      -0.00016300       0.00090400      -0.00170100    2519.61035156   -8852.59375000    1232.97229004
Li       2.30731632       9.39418251       1.53225056      -0.00016300       0.00090400      -0.00170100   -6577.47460938    -327.21191406     240.58424377
Li       3.74696288       7.98619454       5.94846326      -0.00016300       0.00090400      -0.00170100   -2955.05810547   -2576.30566406    -586.56945801
Li       7.89294223       2.75444013       0.12925298      -0.00016300       0.00090400      -0.00170100  -22753.22656250   15917.05273438  -19775.03906250
Li       8.52696930       2.96306919       7.46881923      -0.00016300       0.00090400      -0.00170100   -1885.76977539   -3354.67553711    4455.41845703
Li       8.77365464       8.80433417       1.13545914      -0.00016300       0.00090400      -0.00170100   -1683.80493164  -43809.90625000    3331.18701172
Li       7.94316955       8.27107803       6.38753001      -0.00016300       0.00090400      -0.00170100  -52662.67187500   -1832.56372070  -12984.72460938
Li       2.81895277       2.91144824       2.69878503      -0.00164200      -0.00005200       0.00064700   17502.77929688    5338.16308594   -6934.59814453
Li       3.15942488       1.61805750       7.41826929      -0.00164200      -0.00005200       0.00064700  182203.82812500  124087.28125000    8701.98437500
Li       3.55947608       8.14409710       0.04805593      -0.00164200      -0.00005200       0.00064700   -5950.94726562   -1430.29187012    7733.41992188
Li       3.85662652       7.00940356       7.39317546      -0.00164200      -0.00005200       0.00064700   -2794.24926758    6018.77929688  -12110.48046875
Li       8.25367640       1.16606816       2.28072220      -0.00164200      -0.00005200       0.00064700   -1143.23632812  -48840.95703125   -8289.13867188
Li       8.95809607       1.31253560       6.19195486      -0.00164200      -0.00005200       0.00064700  -15131.98828125   -1230.88671875    -714.49389648
Li       9.49723894       7.26399205       2.20018690      -0.00164200      -0.00005200       0.00064700    6300.42187500  -10560.97558594    9118.69628906
Li       8.91964938       7.56743887       5.60230760      -0.00164200      -0.00005200       0.00064700   -3576.26562500   -6152.82226562    4004.53930664
Li       4.89247805       6.58666852       1.03346204      -0.00284200      -0.00375900      -0.00212200    -523.74975586    1015.06152344   15392.88867188
Li       4.36973651       4.37062434       5.59903880      -0.00284200      -0.00375900      -0.00212200   -4000.87329102    3942.47827148   -1052.13867188
Li       3.69813103       9.28560556       1.21488365      -0.00284200      -0.00375900      -0.00212200    3630.56689453   -1711.74121094   -2911.71850586
Li       4.60937830       9.94223050       6.37178118      -0.00284200      -0.00375900      -0.00212200   -1105.86010742     233.25817871   -7947.60400391
Li       9.14968120       3.96183478       1.53640141      -0.00284200      -0.00375900      -0.00212200    3753.88891602   -8435.91601562   -6532.75439453
Li      10.13018527       5.34134535       7.29259029      -0.00284200      -0.00375900      -0.00212200  -11362.89453125   -8589.75195312    2287.44580078
Li       9.72981938       9.73065778       1.18228960      -0.00284200      -0.00375900      -0.00212200 -18383960.00000000 42351700.00000000 -46405604.00000000
Li       9.07250711       9.43348891       5.51797892      -0.00284200      -0.00375900      -0.00212200  -34046.96875000 -139144.15625000   32721.33789062
Li       2.31079586       1.09305569      -0.18620543       0.00289800      -0.00427900       0.00060100    2569.30761719   -2394.49462891   -5328.86621094
Li       2.95365893       1.85698037       6.79637200       0.00289800      -0.00427900       0.00060100  -14276.65039062   -6628.51660156    2682.59521484
Li       0.50033091       7.95001925       0.91267785       0.00289800      -0.00427900       0.00060100  -10739.05468750   31570.05664062     -76.12060547
Li       1.67636464       7.71937737       6.28514094       0.00289800      -0.00427900       0.00060100    8342.04882812    -515.03076172   -7241.77636719
Li       6.75052204       2.28779830       1.35674793       0.00289800      -0.00427900       0.00060100  -71347.06250000   69357.32812500    7532.89648438
Li       8.16092555       2.29416989       6.69215914       0.00289800      -0.00427900       0.00060100    1051.07604980    2964.54003906     424.84936523
Li       6.27349143       7.79346179       1.48646182       0.00289800      -0.00427900       0.00060100   -4215.57421875  -17765.88867188   -6545.79980469
Li       6.19886732       6.42745857       5.18406423       0.00289800      -0.00427900       0.00060100    1737.87097168   -2583.73388672   -6841.19140625
Li       3.32190942       0.10141095       2.37796676      -0.00149300       0.00400600      -0.00191400  -10209.60839844    7053.46728516   10508.14453125
Li       3.74609043       0.38090723       6.79894433      -0.00149300       0.00400600      -0.00191400   -3674.89404297    1330.15405273    4028.97363281
Li       3.65293252       4.03343063       0.82172535      -0.00149300       0.00400600      -0.00191400   -6187.87353516   -3962.10693359   -6225.88281250
Li       4.01400097       3.45508476       6.56805804      -0.00149300       0.00400600      -0.00191400    -896.74829102     532.46655273   -1597.99353027
Li       7.58387982       1.25742013       2.32116104      -0.00149300       0.00400600      -0.00191400   14226.07031250   -7109.66210938    6009.20507812
Li       7.72444800      -0.82281444       6.49258033      -0.00149300       0.00400600      -0.00191400  -10980.29687500    4575.26220703   10011.25585938
Li       7.86330378       5.77505919       1.42487261      -0.00149300       0.00400600      -0.00191400    7693.30712891    7267.52392578    8019.69970703
Li       7.93689025       4.53061276       8.03589050      -0.00149300       0.00400600      -0.00191400   -5920.13916016    3937.56201172   -1722.02673340
Li       5.59717808       1.62104658       2.06824219       0.00487600      -0.00667400       0.00163400  -33131.85546875   41555.68359375   -7745.04931641
Li       3.63944952       2.79866021       5.74615672       0.00487600      -0.00667400       0.00163400    4398.79492188   -5152.04541016    1214.90258789
Li       3.92332642       8.37421827       2.77226863       0.00487600      -0.00667400       0.00163400   -3668.40673828    2263.24707031    7303.78271484
Li       2.69341972       8.55029503       7.16575012       0.00487600      -0.00667400       0.00163400    4607.12109375    2764.26391602    3301.63159180
Li      10.62619018       1.30469197       0.83870849       0.00487600      -0.00667400       0.00163400   -1844.63269043    9482.91406250    9807.58398438
Li      10.37761514       1.72318785       5.66302908       0.00487600      -0.00667400       0.00163400    1745.90039062     965.89746094    3122.15942383
Li       9.34905517       7.11191945       1.47473463       0.00487600      -0.00667400       0.00163400    3719.30029297   -3995.16943359    -947.42724609
Li       8.74440269       8.88202147       7.47063329       0.00487600      -0.00667400       0.00163400  -18393.68945312   24635.16796875    9968.09863281
Li       1.58893617       1.75143679       3.60366631       0.00211600      -0.00326400       0.00203100     -19.67858887   -8548.76171875    4829.04589844
Li       3.14595455       1.63835870       7.39722594       0.00211600      -0.00326400       0.00203100 -183529.48437500 -120141.39843750    -149.92968750
Li       2.70652950       6.35396906       1.65362201       0.00211600      -0.00326400       0.00203100    2275.26611328    5747.19433594    6825.54394531
Li       2.18834874       4.79480159       7.36406179       0.00211600      -0.00326400       0.00203100   -1262.58947754   -3491.52880859    3345.33105469
Li       7.83068722       0.61180510       1.07170040       0.00211600      -0.00326400       0.00203100  232434.29687500   -3784.56250000  -71193.28125000
Li       7.69468569       0.88219251       7.43622821       0.00211600      -0.00326400       0.00203100    1017.95043945   -2281.78833008    4023.90869141
Li       8.32646238       6.94805914       1.25860443       0.00211600      -0.00326400       0.00203100    4318.01708984    1422.78942871    5580.12890625
Li       7.95958123       5.16625149       6.81176262       0.00211600      -0.00326400       0.00203100    7412.85449219    -376.22253418     882.47827148
Li       1.42360555       4.05568561       1.90496433       0.00399500      -0.00154200      -0.00104600    2645.63232422    8772.35058594    -126.98541260
Li       0.93632819       4.52499967       8.28474382       0.00399500      -0.00154200      -0.00104600    7329.39501953   -1175.33898926    1570.36950684
Li       2.46689003       9.36831506       3.59474796       0.00399500      -0.00154200      -0.00104600   -4616.11425781   -1168.53149414    6699.00146484
Li       2.47893983       9.95062314       8.54793231       0.00399500      -0.00154200      -0.00104600   -1083.58325195    7184.90673828   -3858.53564453
Li       7.50388058       3.95505501       3.22974231       0.00399500      -0.00154200      -0.00104600    2568.55688477   -4086.85937500   -9519.22070312
Li       7.17379105       4.39498796       8.24169945       0.00399500      -0.00154200      -0.00104600     186.89660645   -6863.03710938   -4616.21582031
Li       6.69321338       9.96152328       3.33459459       0.00399500      -0.00154200      -0.00104600  -27281.71679688   -4475.63183594     293.77319336
Li       7.82500705      10.58190269       7.82180517       0.00399500      -0.00154200      -0.00104600   -1317.77856445     915.79711914   -7670.95654297
Li       4.85176851       3.42226782       4.00853114       0.00180600      -0.00258200      -0.00395500    2551.49804688    7208.01269531   -1452.23315430
Li       5.95487263       5.40901668       8.74925943       0.00180600      -0.00258200      -0.00395500  136715.00000000  749593.00000000  760027.75000000
Li       6.31441583       9.26127943       3.39060225       0.00180600      -0.00258200      -0.00395500  -14195.45605469   -3353.11303711    8807.09179688
Li       4.66925375       9.29778270      10.17098353       0.00180600      -0.00258200      -0.00395500    3111.21020508   13209.79199219   -2720.89111328
Li      11.15080047       3.39964922       3.56835208       0.00180600      -0.00258200      -0.00395500     101.81665039    4028.53613281    6289.69482422
Li      11.96405467       4.06845862       9.45689712       0.00180600      -0.00258200      -0.00395500    -486.32827759    -902.96716309   -8578.72070312
Li      11.23459618       7.59094430       3.75205457       0.00180600      -0.00258200      -0.00395500    3571.50830078   -5945.97607422    3033.06542969
Li      10.78042637       9.58764958      10.34768521       0.00180600      -0.00258200      -0.00395500  -10423.27441406  -13335.06640625  -20426.32421875
Li       0.67088198       0.11173808       3.94773310      -0.00119200       0.00505800       0.00110300    2365.17773438   -6760.23437500   -2290.04711914
Li      -1.08860923       1.83566845       8.33719623      -0.00119200       0.00505800       0.00110300    -323.01538086    1547.04223633   -2012.46459961
Li       0.32820230       7.41610258       4.42523898      -0.00119200       0.00505800       0.00110300     543.60552979    2593.40991211     151.08081055
Li       0.55470374       7.93059694       9.74518432      -0.00119200       0.00505800       0.00110300    1575.96166992    6176.11230469   -1436.45849609
Li       5.83699889       1.21750398       4.90185087      -0.00119200       0.00505800       0.00110300   -3883.98339844  -12364.43847656    8035.79980469
Li       4.69262427       3.26804984      10.08654550      -0.00119200       0.00505800       0.00110300   -4691.81738281    -165.84423828    6611.24609375
Li       4.77093329       7.12809260       4.60335775      -0.00119200       0.00505800       0.00110300    1651.99414062  -10111.91796875    3141.09545898
Li       6.28249300       7.13400918       8.46196716      -0.00119200       0.00505800       0.00110300   -1922.25708008   -1713.39013672   -3544.91723633
Li       4.05492130      -1.87790199       5.95793486       0.00134300       0.00036300       0.00127900    -138.17333984    3269.59399414   -3426.66845703
Li       4.62009610       0.13310539       9.91597759       0.00134300       0.00036300       0.00127900   10497.98144531   -1495.60913086  -10255.98632812
Li       4.37243769       4.49081881       4.70949497       0.00134300       0.00036300       0.00127900    1015.15551758    7840.14794922   -2685.39965820
Li       4.33417863       5.56285638       9.86610398       0.00134300       0.00036300       0.00127900     468.49658203   -9817.48046875    -774.26171875
Li       9.04899776      -1.16661712       5.50280043       0.00134300       0.00036300       0.00127900   59943.08593750  154202.51562500  -37658.58593750
Li       9.10975180      -0.10960478       9.91068211       0.00134300       0.00036300       0.00127900   38871.73437500   40404.49609375 -107025.35937500
Li       9.19696601       3.88612220       3.40002945       0.00134300       0.00036300       0.00127900    6094.32421875    1341.00878906   -3943.26074219
Li      10.57043193       4.95305640       8.22409596       0.00134300       0.00036300       0.00127900   -7248.81689453   -3152.00000000    6378.43212891
Li       2.98866433       7.12742724       5.87753270       0.00010700      -0.00503700       0.00259400    -567.28027344   -3051.68652344    4325.98828125
Li       1.56622470       6.93348579       9.86430531       0.00010700      -0.00503700       0.00259400   -5387.49316406    -982.92163086   -2358.76269531
Li       1.24822187      13.03878038       2.93139225       0.00010700      -0.00503700       0.00259400   -1885.80615234   -2427.56274414    2172.93066406
Li       1.63026480      13.66945002      10.68977614       0.00010700      -0.00503700       0.00259400   13238.93750000   -3868.04614258   -3425.25537109
Li       8.14842196       7.24633586       4.94688387       0.00010700      -0.00503700       0.00259400    1609.58935547   -5400.06591797    6319.37500000
Li       6.90675554       8.01770738       9.11658272       0.00010700      -0.00503700       0.00259400   12236.88476562    5795.72412109    5806.41210938
Li       6.43084974      13.28488280       3.58617830       0.00010700      -0.00503700       0.00259400    7206.33642578   -1139.93383789    3430.87011719
Li       7.63359101      11.29363553      10.44202029       0.00010700      -0.00503700       0.00259400   29839.79296875  -25648.79101562    4987.12500000
Li       0.07370507       6.18521759       4.35365286      -0.00703800       0.00249700      -0.00063200    4541.97851562     142.50830078    4490.16308594
Li       0.72983806       5.58886698       8.87725434      -0.00703800       0.00249700      -0.00063200   -1783.18713379   -1112.83422852   -7854.20019531
Li       2.30914432      12.04922158       3.58474690      -0.00703800       0.00249700      -0.00063200      73.73641968    -935.38531494     323.89660645
Li       1.10610005      11.52093110       9.13145766      -0.00703800       0.00249700      -0.00063200   -2319.67846680   -5487.92968750     400.35614014
Li       4.92558733       5.87106656       4.49061209      -0.00703800       0.00249700      -0.00063200   -3505.59106445   -1753.14624023    3585.44604492
Li       6.83484035       5.32201133       9.17935420      -0.00703800       0.00249700      -0.00063200    -213.55712891      66.31658936   -1342.33349609
Li       3.85312080      10.55269907       2.51549380      -0.00703800       0.00249700      -0.00063200  -11505.84277344   18302.85156250    -182.00122070
Li       5.39917213      11.05735216      11.34044291      -0.00703800       0.00249700      -0.00063200    4176.65917969     449.95800781  -23828.66601562
Li       4.37472050       3.21813641       3.50719660      -0.00252500       0.00403200      -0.00153800   -3279.51953125    4092.37084961   -9473.56445312
Li       1.96794140       1.20558606       9.13625647      -0.00252500       0.00403200      -0.00153800    7212.09033203   -1457.31518555    1154.94555664
Li       2.64012971       8.56409668       1.50594409      -0.00252500       0.00403200      -0.00153800   -3535.68090820  -11218.84375000    8808.96093750
Li       2.97211282       6.70623329       8.41387850      -0.00252500       0.00403200      -0.00153800  -16836.62890625    9608.91894531    2657.67089844
Li       7.99917941       2.77220003       3.16321675      -0.00252500       0.00403200      -0.00153800    3477.15747070   17353.18359375    6758.29052734
Li       8.92042452       2.16753214      10.24694572      -0.00252500       0.00403200      -0.00153800   -8047.20214844    3659.26464844  -41892.51171875
Li       9.23664745       7.42257745       4.12448407      -0.00252500       0.00403200      -0.00153800   10155.54687500     727.46313477   -4412.33007812
Li       8.35938876       8.18243538       7.51420393      -0.00252500       0.00403200      -0.00153800   -8740.28125000   -3076.80566406   -5492.31201172
Li       3.27994186       1.02588427       7.42348103      -0.00079400       0.00235800       0.00083600    -671.36505127   -1616.80053711   -6166.30126953
Li       4.14340841       1.34091254      11.18657094      -0.00079400       0.00235800       0.00083600    4592.73779297    3888.96240234   -3096.80468750
Li       4.42315590       6.12138079       6.80888514      -0.00079400       0.00235800       0.00083600   -7535.31445312    9382.73046875   -1272.75842285
Li       3.69576919       6.10403056      11.26696568      -0.00079400       0.00235800       0.00083600   -2190.49462891   -1099.49658203     832.22412109
Li       7.62350199       0.15983956       6.62699289      -0.00079400       0.00235800       0.00083600   14133.48144531   -3782.28784180    6529.85351562
Li      10.12161647      -0.81171996      11.89478931      -0.00079400       0.00235800       0.00083600  -25436.79687500   -8433.82324219  -73511.46875000
Li      10.04699422       5.52307559       6.92766973      -0.00079400       0.00235800       0.00083600  -15287.44921875   22015.64453125  -24685.59960938
Li       8.47279030       5.21387447      12.37301061      -0.00079400       0.00235800       0.00083600    5560.98535156   16656.37890625   -6148.22021484
Li       5.96855884       4.43043463       0.68490945       0.00040300      -0.00135500       0.00522500  -56524.09375000    1869.21484375  -37070.32421875
Li       4.48428320       5.89413462       5.81854133       0.00040300      -0.00135500       0.00522500   -2454.56616211   -2853.78588867   -1943.21118164
Li       5.93696626       9.20362896       0.88602313       0.00040300      -0.00135500       0.00522500   -5026.33642578   -3691.60937500  -22578.04492188
Li       6.49443369      10.20071193       4.45802264       0.00040300      -0.00135500       0.00522500  -14702.04589844   -5440.90966797    7567.90380859
Li       0.47283900       4.29438823       0.73184029       0.00040300      -0.00135500       0.00522500    4625.95703125    3856.66845703    7116.58496094
Li      -0.18823262       4.32975626       7.33867135       0.00040300      -0.00135500       0.00522500  -13328.53027344    6398.82080078   -3027.60815430
Li      -0.31829673      10.12666519       0.72156270       0.00040300      -0.00135500       0.00522500   31884.05078125   14269.58984375   27159.84765625
Li      -1.59082568       9.75471194       8.38206729       0.00040300      -0.00135500       0.00522500     652.52832031     133.09194946    9325.28027344
Li      -0.21712842       2.64912514       2.32297612       0.00606900      -0.00070200      -0.00004800   13562.32324219    2397.72680664    3839.91259766
Li      -0.51722286       2.90757331       6.88381514       0.00606900      -0.00070200      -0.00004800    5749.96972656   -3705.94458008    4894.44238281
Li      -1.13931172       6.61578319       3.04834629       0.00606900      -0.00070200      -0.00004800   -1505.20092773   -1615.95581055   -2607.33520508
Li       0.37018434       6.95749456       6.61783407       0.00606900      -0.00070200      -0.00004800   -9995.37890625   -3318.45727539   -7550.96484375
Li       6.56787223       2.92479383       1.86388906       0.00606900      -0.00070200      -0.00004800    5464.99511719   -6812.95214844     592.03186035
Li       4.76668220       1.48091974       6.48894122       0.00606900      -0.00070200      -0.00004800    2489.92993164    7322.16113281   -1247.10021973
Li       5.38770270       6.42172955       0.75494453       0.00606900      -0.00070200      -0.00004800    7693.20361328    2163.67187500    8317.62109375
Li       4.89224389       8.05818152       6.60736918       0.00606900      -0.00070200      -0.00004800    2171.02343750   -2162.18261719   -3133.85498047
Li       1.77144485       3.76272423       1.69593631       0.00290200      -0.00004300       0.00186200   16349.98046875   -4264.96533203   -2316.75976562
Li       1.33371159       4.60246577       7.11336515       0.00290200      -0.00004300       0.00186200    5967.43310547   12283.51171875    4558.11376953
Li      -0.19221401       9.17323673       2.89151655       0.00290200      -0.00004300       0.00186200  -11991.75683594    3887.91186523    4446.80761719
Li       0.84201518       7.93567133       9.01903943       0.00290200      -0.00004300       0.00186200    2798.65747070    5458.54003906   -5276.77441406
Li       6.23380329       2.18835648       2.20020470       0.00290200      -0.00004300       0.00186200  -33133.07812500   50452.57812500  -18124.14062500
Li       6.06690242       2.99371210       8.31251522       0.00290200      -0.00004300       0.00186200    4464.77099609   -3227.85156250    2076.31884766
Li       6.93997854       9.21017927       2.32544676       0.00290200      -0.00004300       0.00186200  -20075.13085938   -2423.30175781   22566.96093750
Li       6.08121032       9.52151335       8.20764690       0.00290200      -0.00004300       0.00186200    3989.43554688    1321.22656250     179.93847656
Li       5.52847914      -0.00058296       3.81581166      -0.00431400       0.00443800       0.00566700  -12222.09082031    4313.86425781   18807.60937500
Li       3.16417120      -0.24227093       8.01487332      -0.00431400       0.00443800       0.00566700  -21204.78906250  -12079.91894531   -8324.57519531
Li       3.22897370       4.49633766       4.24266236      -0.00431400       0.00443800       0.00566700    2075.53051758    9849.36425781    -382.20504761
Li       5.78725802       5.38003619       9.52769258      -0.00431400       0.00443800       0.00566700   -1376.84863281    3753.00634766    -276.01025391
Li      10.04563572       0.73386659       5.54150378      -0.00431400       0.00443800       0.00566700   -2916.58154297  -11267.82617188    1668.24145508
Li       9.74770091       0.28061541       9.93288889      -0.00431400       0.00443800       0.00566700   -7195.88183594   15228.31933594  -39883.35546875
Li      10.16996384       6.27840243       3.74358248      -0.00431400       0.00443800       0.00566700    7557.92285156    -616.56573486    -334.43237305
Li       9.47236187       5.84538002       8.49158878      -0.00431400       0.00443800       0.00566700   -7518.38476562    2814.08251953   -3669.75439453
Li      -1.19169093       3.49081520      -0.52795049       0.00185700       0.00179900      -0.00399600   -5039.63281250   -3786.93994141    7052.83056641
Li      -0.71790035       2.17854078       4.25629433       0.00185700       0.00179900      -0.00399600   -1485.98535156    1402.06396484   -8842.82910156
Li       0.57139757       8.89395169      -0.07870111       0.00185700       0.00179900      -0.00399600    7545.42529297  -15864.00683594   -8980.64550781
Li      -1.29533463       8.14167473       4.78444766       0.00185700       0.00179900      -0.00399600    3378.70117188   -1840.74792480   -1065.60620117