416
Lattice="14.172705428567328 0.0 0.0 0.0 14.172705428567328 0.0 0.0 0.0 14.172705428567328" Properties=species:S:1:pos:R:3:DFT_forces:R:3:forces:R:3 label=eos ionic_step=1.0 config=222503 DFT_energy=-1733.2274 DFT_stress="-0.0004000495246145874 -0.0013532964512705803 0.0010184894781559706 -0.000662567385006696 0.001465506386011839 -6.699012010358274e-05" energy=-2759.875244140625 stress="-14.535045623779297 -1.2324237823486328 -0.03135106712579727 -1.2324237823486328 -16.985124588012695 -0.039819035679101944 -0.03135106712579727 -0.039819035679101944 -16.322877883911133" pbc="T T T"
Li       4.82082351       6.80925819       3.64583447      -0.00570600       0.00037700       0.00613900    -131.48965454     -32.31508636      74.59120941
Li       4.16565241       6.02467696       9.45169709      -0.00570600       0.00037700       0.00613900      80.88230896     -34.28444672      25.29256821
Li       4.02135050      12.72546650       3.89144462      -0.00570600       0.00037700       0.00613900    -486.90820312    -138.59780884    -688.24810791
Li       4.29482296      13.04466187      11.00661803      -0.00570600       0.00037700       0.00613900      67.53430939      33.81953812     -38.84331512
Li      10.36788380       5.84459647       2.17596554      -0.00570600       0.00037700       0.00613900     237.88061523    -125.30595398     -60.81617737
Li      10.80702115       5.92045692       9.42469839      -0.00570600       0.00037700       0.00613900     319.58068848    -651.32153320    -462.97229004
Li      10.88425314      13.02333306       2.07037197      -0.00570600       0.00037700       0.00613900      98.70773315    -318.16326904     377.30368042
Li      11.03255517      12.76023097      10.32472441      -0.00570600       0.00037700       0.00613900     589.01110840     179.40182495    -112.53731537
Li       0.87116631       1.14751163       3.31110925       0.00095700      -0.00427500      -0.00468900    -208.26799011      26.42778587    -237.62644958
Li       0.61107111       1.16939644       9.96176243       0.00095700      -0.00427500      -0.00468900     -37.61463928     283.05621338     -21.34324646
Li       0.00989077       8.37880192       2.60665708       0.00095700      -0.00427500      -0.00468900    -169.32200623     -78.68658447      13.07731628
Li      -0.23249715       8.91936103       8.85957853       0.00095700      -0.00427500      -0.00468900     400.38406372    -199.92880249      75.17735291
Li       7.42800213       1.33099112       2.67480495       0.00095700      -0.00427500      -0.00468900     293.99380493     250.82925415    -105.88856506
Li       7.39983093       1.42143433       9.58367250       0.00095700      -0.00427500      -0.00468900     -64.40074921     207.95861816      72.04383850
Li       6.57040785       8.13431694       2.30938914       0.00095700      -0.00427500      -0.00468900    -278.84445190     112.41744995    -676.27905273
Li       6.13721726       8.97569205      10.06089947       0.00095700      -0.00427500      -0.00468900    -400.28854370     349.97277832    -161.35227966
Li       5.70274113       3.70201614       6.24029458      -0.00148300      -0.00335200      -0.00655700     296.07308960     291.19940186    -103.31077576
Li       7.45974098       5.96435204      16.20308461      -0.00148300      -0.00335200      -0.00655700     191.03810120    -118.80998230      82.72576904
Li       5.86557089      12.01840511       5.88141026      -0.00148300      -0.00335200      -0.00655700     758.59295654      15.00616455    -150.86512756
Li       3.79319900      12.25458155      12.35647242      -0.00148300      -0.00335200      -0.00655700     -70.95126343     121.02643585     221.53848267
Li      11.43599443       4.17202798       5.89231659      -0.00148300      -0.00335200      -0.00655700     212.17660522     -54.27445221      56.47202301
Li      11.41971929       4.68037155      13.48662976      -0.00148300      -0.00335200      -0.00655700     -36.42000198     360.27795410     176.43359375
Li      12.55068492      11.31748479       6.74719375      -0.00148300      -0.00335200      -0.00655700    -214.90519714    -366.67468262    -176.51969910
Li      12.45991567      12.35860530      12.61395358      -0.00148300      -0.00335200      -0.00655700     245.82583618      23.77893066     171.19024658
Li       2.08596011       2.13051396       0.39864838      -0.00138400       0.00561200      -0.00034400      11.82184601     112.66596985     236.96899414
Li       2.60065247       2.72496060       7.80598507      -0.00138400       0.00561200      -0.00034400     225.84341431     288.21643066     282.00204468
Li       2.84824734       8.26435632       0.84815873      -0.00138400       0.00561200      -0.00034400    -257.89743042     -72.96987152    -323.09613037
Li       2.55923633       9.59027617       9.24328426      -0.00138400       0.00561200      -0.00034400    -178.38226318     243.20593262     110.31732941
Li       8.99731716       3.09724248       0.86882206      -0.00138400       0.00561200      -0.00034400     253.85746765    -321.01031494     244.90435791
Li       9.17963163       1.61811754       8.56859222      -0.00138400       0.00561200      -0.00034400      65.98196411      51.60365295      38.93686676
Li       9.46296842       8.72169504       1.01355391      -0.00138400       0.00561200      -0.00034400     303.79589844     586.29718018     278.33627319
Li       9.13964338       8.28694871       7.62913132      -0.00138400       0.00561200      -0.00034400    -558.88684082     -55.18568420    -380.40197754
Li       4.21743739       3.81087264      -0.64864936      -0.00016300       0.00090400      -0.00170100      42.02527237     -37.08558655    -113.54418945
Li       3.79429884       4.04028682       8.09229311      -0.00016300       0.00090400      -0.00170100     198.86962891     158.46923828      32.26104736
Li       4.46487114      11.26244595       1.24330526      -0.00016300       0.00090400      -0.00170100      12.60972595     165.10690308    -555.41320801
Li       3.95420809      12.12816839       8.92228025      -0.00016300       0.00090400      -0.00170100     209.09188843    -408.00183105     504.42367554
Li      10.65738070       6.48857171       0.73341064      -0.00016300       0.00090400      -0.00170100     196.41207886     -91.88629913     361.61181641
Li      11.78322105       3.54852732       8.08240463      -0.00016300       0.00090400      -0.00170100     -61.83550262      77.39846802    -273.85363770
Li      11.04563124      11.00280690       0.80715807      -0.00016300       0.00090400      -0.00170100       5.10735559     -69.16930389      21.22486877
Li      11.04710533      11.18600545       7.09774571      -0.00016300       0.00090400      -0.00170100     321.62152100     551.89697266     -67.98815155
Li       4.21554104       1.49091983       1.63501563      -0.00164200      -0.00005200       0.00064700     299.47741699     171.83168030    -176.21292114
Li       3.54881384       1.36790662       8.25197329      -0.00164200      -0.00005200       0.00064700     371.18365479     191.90568542      96.51602936
Li       4.34789671       8.21111845       1.28109355      -0.00164200      -0.00005200       0.00064700     131.90711975      70.10114288      67.59140778
Li       3.76280519       7.94267974       8.24753874      -0.00164200      -0.00005200       0.00064700      23.19443512     -45.42652130    -148.21141052
Li      10.20712148       1.90607658       1.05564606      -0.00164200      -0.00005200       0.00064700       3.39579010     548.46252441    -165.39793396
Li      10.03352574       2.51883905       7.63785055      -0.00164200      -0.00005200       0.00064700      61.06247711      11.34071159    -111.70814514
Li      10.78259212       8.38827851       1.20937153      -0.00164200      -0.00005200       0.00064700     456.04943848     148.45104980      -4.91528320
Li      11.06059163      10.48436396       8.62073389      -0.00164200      -0.00005200       0.00064700    -357.46408081     142.89006042    -279.79248047
Li       4.52509218       5.98728318       0.41088343      -0.00284200      -0.00375900      -0.00212200    -162.20761108    -162.90295410     -19.73866653
Li       4.04507936       5.66796159       7.33862836      -0.00284200      -0.00375900      -0.00212200      41.21791458     -77.99089050      29.72779274
Li       5.16337041      12.32572526       0.53040632      -0.00284200      -0.00375900      -0.00212200    -123.92791748     -58.18302917    -107.22219086
Li       3.84376240      13.06413222       6.93733846      -0.00284200      -0.00375900      -0.00212200    -268.09515381     -50.94094467     676.48919678
Li      12.98192303       4.62435878       0.01409705      -0.00284200      -0.00375900      -0.00212200     253.46676636     196.66888428     -19.34267044
Li      11.48553452       5.24873877       7.85068634      -0.00284200      -0.00375900      -0.00212200      42.98303223    -185.16589355    -156.36248779
Li      11.76849961      13.05838538      -0.05899470      -0.00284200      -0.00375900      -0.00212200     -44.02695465    -124.61975861     -35.00270844
Li      12.49787666      13.06511383       8.86093482      -0.00284200      -0.00375900      -0.00212200    -580.13934326     589.96911621    -519.75408936
Li       1.87659991       3.72993724       1.83854651       0.00289800      -0.00427900       0.00060100     -48.30115509      55.09865952      46.53020859
Li       1.43232543       3.71899903      10.68880618       0.00289800      -0.00427900       0.00060100     -27.07592010     131.44482422    -274.13281250
Li       2.65219148      11.06784595       2.65867805       0.00289800      -0.00427900       0.00060100    -417.58264160    -225.88162231    -159.40145874
Li       2.28114323      11.49028886       8.81865397       0.00289800      -0.00427900       0.00060100     160.23796082    -174.20997620     231.16247559
Li      10.48437057       3.65634983       2.46822506       0.00289800      -0.00427900       0.00060100    -290.67486572     303.80432129     307.22360229
Li      10.20853136       3.24612467       9.10008901       0.00289800      -0.00427900       0.00060100      16.11557388    -173.26084900      84.59745026
Li       9.91691406      11.08212085       2.30298656       0.00289800      -0.00427900       0.00060100      65.83337402      -0.84852600     -41.10336685
Li      10.09455006      10.86701344       9.62303225       0.00289800      -0.00427900       0.00060100    -292.08578491     -27.37866211      -6.62909698
Li       2.60398939      -0.32595528       2.03211499      -0.00149300       0.00400600      -0.00191400    -579.89587402      64.21604919    -134.20870972
Li       2.50950291      -0.14789993       8.71382312      -0.00149300       0.00400600      -0.00191400     579.45214844      48.63473511     729.18701172
Li       1.60835394       8.86114795       4.55898861      -0.00149300       0.00400600      -0.00191400    -281.41265869     -43.20790100     -65.39516449
Li       1.69801470       7.55105951      12.13648611      -0.00149300       0.00400600      -0.00191400    -376.23657227      35.60279465     159.09225464
Li       9.28930278      -0.57709442       3.06727560      -0.00149300       0.00400600      -0.00191400      85.30952454     -96.92675781    -432.36773682
Li       9.85075792      -0.86496491       9.07588456      -0.00149300       0.00400600      -0.00191400    -443.52685547     190.93313599     454.54388428
Li      10.03721605       7.88345136       2.97320232      -0.00149300       0.00400600      -0.00191400     -54.68258667     167.90313721      24.65419006
Li       9.74035309       8.09982184       9.39181940      -0.00149300       0.00400600      -0.00191400    -336.11105347    -511.24322510    -836.05126953
Li       7.76064014       3.45015167       2.30526766       0.00487600      -0.00667400       0.00163400    -382.59719849     189.24603271    -112.32242584
Li       7.64807274       3.55301993       8.47618478       0.00487600      -0.00667400       0.00163400     180.59645081      36.92726135    -115.37823486
Li       8.22466680      11.60353728       2.77471769       0.00487600      -0.00667400       0.00163400    -115.07833862     321.19067383       0.72531128
Li       8.29671857      10.46404482       9.83243691       0.00487600      -0.00667400       0.00163400     827.99475098    -268.67651367     357.63757324
Li      15.11793981       3.12150689       1.40752942       0.00487600      -0.00667400       0.00163400     -77.38112640      30.90835953      15.51790810
Li      15.34562734       3.26387384       8.22900039       0.00487600      -0.00667400       0.00163400    -305.58401489     477.27819824     452.61511230
Li      14.94906956      10.88418111       1.95910932       0.00487600      -0.00667400       0.00163400    -235.46545410    -207.04536438     -50.52628326
Li      14.58407298      10.56975281       8.55188585       0.00487600      -0.00667400       0.00163400     170.78150940    -214.59230042     163.52409363
Li       3.63574717       0.35600373       2.72131819       0.00211600      -0.00326400       0.00203100     157.09980774     154.49279785     -14.33554077
Li       3.66755475       0.31760442       9.86401662       0.00211600      -0.00326400       0.00203100     266.28396606      11.31936646     295.35003662
Li       3.71718385       8.06905353       2.19217466       0.00211600      -0.00326400       0.00203100    -146.11831665     -53.28101730      63.56352234
Li       3.43124975       7.52098881       9.56062600       0.00211600      -0.00326400       0.00203100      -5.43373108     -16.09598732     132.17898560
Li      11.20688455       0.54465751       2.77261093       0.00211600      -0.00326400       0.00203100     147.24938965      -7.06592560     444.87268066
Li      11.19295456       0.54712867       9.80332943       0.00211600      -0.00326400       0.00203100    -134.68475342     451.96765137     -35.10545349
Li      10.93516123       7.09767816       3.95957678       0.00211600      -0.00326400       0.00203100      13.37522888    -148.60685730     127.27552795
Li      10.90609537       7.40399993       9.96525575       0.00211600      -0.00326400       0.00203100     573.30236816    -285.62814331     211.15571594
Li       3.07897280       3.29705920       5.00540800       0.00399500      -0.00154200      -0.00104600    -154.71557617     223.53254700    -220.32974243
Li       3.05295102       5.12879739      11.79818033       0.00399500      -0.00154200      -0.00104600    -108.79796600    -206.18576050     155.03686523
Li       2.48701651      14.54278481       4.59630202       0.00399500      -0.00154200      -0.00104600    -194.07749939     -95.53184509    -561.48400879
Li       2.10800940      13.72090988      11.93835007       0.00399500      -0.00154200      -0.00104600     436.05108643    -166.35252380     509.02117920
Li      10.00445802       6.41827101       4.18018330       0.00399500      -0.00154200      -0.00104600     230.52456665    -105.60900879     381.08654785
Li       9.50722219       5.69878545      11.99165590       0.00399500      -0.00154200      -0.00104600     -81.27975464    -249.57267761     378.99877930
Li       8.85250384      13.14715117       4.64402579       0.00399500      -0.00154200      -0.00104600     232.38958740      29.37918854      23.83329010
Li      10.25888103      12.48599991      11.81524741       0.00399500      -0.00154200      -0.00104600     -22.83322906      69.88341522     350.06799316
Li       5.87960096       1.76490075       3.93604946       0.00180600      -0.00258200      -0.00395500      76.28256989     343.96258545    -117.99874115
Li       5.74942466       2.10331417      11.15075447       0.00180600      -0.00258200      -0.00395500     -48.35184479      93.12123871      31.84052086
Li       5.83866204       9.04983515       3.48302246       0.00180600      -0.00258200      -0.00395500    -119.21244812    -337.29721069     -12.99640656
Li       5.80726240       8.95136567      10.59251346       0.00180600      -0.00258200      -0.00395500    -215.63180542      66.30464935     -95.35009766
Li      12.82006338       1.83590161       4.25413407       0.00180600      -0.00258200      -0.00395500    -185.90966797     119.70988464       3.50735283
Li      12.84309140       1.84050613      11.01691489       0.00180600      -0.00258200      -0.00395500    -183.76535034     298.84320068    -178.13827515
Li      13.16231142       9.50439475       3.65376837       0.00180600      -0.00258200      -0.00395500      32.22702789     123.18287659    -141.79666138
Li      12.95451888       9.04477540      10.40578926       0.00180600      -0.00258200      -0.00395500     772.75280762    -572.05322266     -66.95628357
Li       3.13890112       4.90016675       6.29529853      -0.00119200       0.00505800       0.00110300     -65.23426819     162.92617798     -41.34296036
Li       4.33057628       2.95736214      12.70848324      -0.00119200       0.00505800       0.00110300      51.13876724     162.26335144      -2.01291656
Li       1.93285207      11.56395098       7.13203215      -0.00119200       0.00505800       0.00110300     549.33978271    -372.79785156    -332.14575195
Li       3.19560275      10.84677668      14.65006688      -0.00119200       0.00505800       0.00110300      81.14903259     -97.82155609      25.65661621
Li       9.55908969       5.21983563       7.91683115      -0.00119200       0.00505800       0.00110300      55.37140274    -659.77685547      -3.58029175
Li      10.91761159       3.38684556      14.11034140      -0.00119200       0.00505800       0.00110300      44.79719925    -171.53233337    -241.35023499
Li       9.63996183      12.27552656       7.29728219      -0.00119200       0.00505800       0.00110300    -528.41613770     -38.43449402    -368.38467407
Li      10.27753707      11.50684522      12.93382440      -0.00119200       0.00505800       0.00110300     -95.75054932      -1.83724976     419.42507935
Li       4.49457466      -0.88442349       4.01634606       0.00134300       0.00036300       0.00127900     -88.90684509     478.53005981    -195.34249878
Li       4.34154261       0.52926883      12.67202308       0.00134300       0.00036300       0.00127900     -50.94728851     -86.52865601       8.73696136
Li       4.72522688       6.67745136       6.07915875       0.00134300       0.00036300       0.00127900      18.19808960     -39.29224396    -162.60662842
Li       4.43386633       7.01262403      11.54651769       0.00134300       0.00036300       0.00127900     318.35638428     -59.94326401     -32.47226334
Li      11.94700759      -0.92491069       5.33268546       0.00134300       0.00036300       0.00127900    -390.02212524      37.85148621    -270.48434448
Li       9.99291722      -0.22385272      12.87172789       0.00134300       0.00036300       0.00127900    -190.20776367    -346.04266357     123.86160278
Li      10.76896004       7.22512862       4.64727037       0.00134300       0.00036300       0.00127900     197.67199707     -11.48358154     130.27700806
Li      11.49812434       7.57121991      11.32069038       0.00134300       0.00036300       0.00127900     802.96563721    -524.21667480      67.38186646
Li       0.36573615       7.90429239       6.68303031       0.00010700      -0.00503700       0.00259400     247.90568542      52.20788574     -29.46115494
Li      -0.52776206       8.96347065      13.03284020       0.00010700      -0.00503700       0.00259400     154.23355103      44.16936493     -83.27652740
Li       0.40520210      15.08252925       7.13743528       0.00010700      -0.00503700       0.00259400    -378.81350708     -11.99981689    -422.47671509
Li      -0.49870499      14.19495303      12.01166611       0.00010700      -0.00503700       0.00259400      17.84827042    -185.48193359     425.40618896
Li       6.93414932       7.10678834       6.71915056       0.00010700      -0.00503700       0.00259400     -72.93671417    -134.79968262     -77.68753052
Li       7.53218037       7.51855677      13.56522216       0.00010700      -0.00503700       0.00259400     875.51116943    1351.26831055    -274.49142456
Li       7.09563999      14.38574294       6.19105018       0.00010700      -0.00503700       0.00259400     238.28118896     -34.31397247     288.63595581
Li       8.01259933      14.80215711      13.44162015       0.00010700      -0.00503700       0.00259400    -838.63439941     272.59936523    -266.14666748
Li       2.90996051       6.85844087       5.84766970      -0.00703800       0.00249700      -0.00063200     172.44851685      37.50024414     -75.42369080
Li       2.78842210       7.51780350      12.95767393      -0.00703800       0.00249700      -0.00063200      46.48660278       8.83013344     188.50204468
Li       3.16561054      13.43653723       6.53778428      -0.00703800       0.00249700      -0.00063200     148.93254089    -309.95227051     237.82656860
Li       2.19374354      14.31101855      13.79019422      -0.00703800       0.00249700      -0.00063200     115.63157654      -4.61218262    -107.64202881
Li       9.80229813       6.00485297       6.82941795      -0.00703800       0.00249700      -0.00063200     -30.61050987    -476.92953491    -375.44378662
Li       9.34598387       6.49543574      12.19758150      -0.00703800       0.00249700      -0.00063200    -240.76550293    -147.20585632      96.23968506
Li      10.43475439      14.18297118       6.81890796      -0.00703800       0.00249700      -0.00063200    -345.87133789     334.46627808     -44.37841797
Li      10.63271992      13.91194489      13.60763870      -0.00703800       0.00249700      -0.00063200     139.26928711     -22.43275070     -83.65460205
Li       4.65880308       3.18305096       4.36199709      -0.00252500       0.00403200      -0.00153800     148.92381287      95.38124084     -93.08311462
Li       4.61217309       1.96547977      11.37458240      -0.00252500       0.00403200      -0.00153800     236.75877380     102.06211853      -8.15850449
Li       4.52863977       9.08497050       5.40251214      -0.00252500       0.00403200      -0.00153800     380.86911011    -436.54595947    -138.70964050
Li       4.97543790      10.19478952      12.08311317      -0.00252500       0.00403200      -0.00153800       5.31649876      90.60168457    -187.38278198
Li      10.90274139       2.83813091       4.90445404      -0.00252500       0.00403200      -0.00153800     -46.92388535     -83.28222656      19.02374268
Li      11.38292292       2.84354896      12.09236418      -0.00252500       0.00403200      -0.00153800    -189.03054810      -2.63266373    -252.61091614
Li      11.41093983       9.90333999       4.47296577      -0.00252500       0.00403200      -0.00153800      20.28897095      49.10681534     -39.76428223
Li      11.22356027      10.36270977      12.53886813      -0.00252500       0.00403200      -0.00153800     100.20487976      22.01894379     311.16247559
Li       5.02912553      -0.56810600       6.00947239      -0.00079400       0.00235800       0.00083600      37.01016235    -103.47853851    -228.26107788
Li       4.87906896       1.63392394      13.35400211      -0.00079400       0.00235800       0.00083600     -55.38930130     -79.56404114      43.31388092
Li       4.48286956      10.07479043       3.45592878      -0.00079400       0.00235800       0.00083600    -419.88977051      32.73988342     389.28540039
Li       4.89517017       7.03946282      12.27325687      -0.00079400       0.00235800       0.00083600     -69.62958527    -201.78054810    -226.87379456
Li      11.11000719       1.00203877       5.65794319      -0.00079400       0.00235800       0.00083600     135.95208740     123.71749115    -132.62445068
Li      10.98675707       1.89255581      13.83831219      -0.00079400       0.00235800       0.00083600     233.10586548     305.24258423     211.15951538
Li      11.51299174       7.99985763       5.12560113      -0.00079400       0.00235800       0.00083600     207.15435791     113.58032227     118.68442535
Li      10.64104776       7.40331380      12.10519854      -0.00079400       0.00235800       0.00083600     413.99243164    -380.92208862     608.77270508
Li       7.58537685       4.95515324       2.65888994       0.00040300      -0.00135500       0.00522500    -214.32823181    -125.38045502     115.85465240
Li       7.05962649       4.46295131      10.38476196       0.00040300      -0.00135500       0.00522500    -310.95761108    -213.79269409    -192.32031250
Li       6.73301960      12.02998899       3.47410761       0.00040300      -0.00135500       0.00522500     995.55444336      52.67425156    -227.47686768
Li       8.25094382      12.27191688      10.30217815       0.00040300      -0.00135500       0.00522500    -188.90020752     181.16003418     -85.72103119
Li      -0.44226130       4.24226822       3.88806011       0.00040300      -0.00135500       0.00522500     -34.59995270     -97.44381714     183.90823364
Li      -0.25288530       5.27150432      11.07826346       0.00040300      -0.00135500       0.00522500      90.03016663     -18.74297905      71.71813965
Li       1.17720398      11.91256402       4.12847977       0.00040300      -0.00135500       0.00522500    -126.38577271    -346.27127075      41.52251434
Li       0.65662443      11.96677024      10.35380242       0.00040300      -0.00135500       0.00522500     261.50305176    -363.24255371     141.28701782
Li       0.43698621      -0.29102230       1.35643135       0.00606900      -0.00070200      -0.00004800     -74.88719177    -139.57929993     144.51141357
Li       0.60379588       0.12671390       8.11294140       0.00606900      -0.00070200      -0.00004800    -250.35041809    -186.81872559     529.43273926
Li       0.89134614       8.56722020       1.29307610       0.00606900      -0.00070200      -0.00004800     -33.05132294     114.93534851     -14.95842266
Li       0.86764595       8.07293925       8.62577722       0.00606900      -0.00070200      -0.00004800     -20.13101959    -172.81874084      81.44065857
Li       8.09817011       0.05250977       1.59667202       0.00606900      -0.00070200      -0.00004800    -108.15612793     -45.75989532     426.59335327
Li       7.71049518       0.40028620       8.45479361       0.00606900      -0.00070200      -0.00004800     -86.33613586     -36.41926575     -17.36844635
Li       7.85238108       8.25953195       1.40658869       0.00606900      -0.00070200      -0.00004800    -499.95288086     -43.51630783    -196.59950256
Li       7.59997296       7.51612163       8.32451540       0.00606900      -0.00070200      -0.00004800    -120.36815643     -44.09339523     -47.09649658
Li       1.61930289       4.07797139       5.76507786       0.00290200      -0.00004300       0.00186200    -132.90441895     148.15592957    -162.47615051
Li       0.33923653       3.76760163      12.29920813       0.00290200      -0.00004300       0.00186200     -64.29099274       4.24642754     245.58959961
Li       1.43814274      10.01649678       5.79884394       0.00290200      -0.00004300       0.00186200      -1.18272400    -131.93759155     -42.09226990
Li       1.70642825      10.21261441      12.76989215       0.00290200      -0.00004300       0.00186200      -6.67107010    -166.34838867      29.37578201
Li       7.49778234       3.23881812       5.95837220       0.00290200      -0.00004300       0.00186200      10.59653950     -27.01285172      97.05033875
Li       8.45709426       4.73683983      12.58651516       0.00290200      -0.00004300       0.00186200      39.19541168    -223.03018188     115.90367889
Li       8.65844322      10.86326160       5.85986571       0.00290200      -0.00004300       0.00186200     -58.44810486      45.12476349    -393.10540771
Li       7.48366978      11.66503625      12.18785743       0.00290200      -0.00004300       0.00186200    -395.72399902      32.45348740     138.19621277
Li       7.30058778       1.50636350       7.85433233      -0.00431400       0.00443800       0.00566700      93.31893921      73.05357361    -177.93243408
Li       6.70681960       2.01242379      13.86879287      -0.00431400       0.00443800       0.00566700    -184.12092590    -114.30986023    -220.87902832
Li       7.61052091       9.25187845       7.79594717      -0.00431400       0.00443800       0.00566700    -445.13668823      43.05538940     -89.33734894
Li       7.00687335       8.75225051      14.29046180      -0.00431400       0.00443800       0.00566700    -111.08355713    -175.17565918     139.58862305
Li      13.32089738       2.35466663       6.88498440      -0.00431400       0.00443800       0.00566700    -375.04785156     -67.52609253    -298.58670044
Li      14.47785217       1.53794683      13.81940580      -0.00431400       0.00443800       0.00566700     149.74134827     238.28291321     -68.96443176
Li      13.61329660       9.25225644       7.06435132      -0.00431400       0.00443800       0.00566700    -103.38101196    -425.02792358    -196.73361206
Li      13.28287087       9.13947899      14.60179591      -0.00431400       0.00443800       0.00566700     -51.04459381     124.52845764     153.50302124
Li       2.14676674       6.76594605      -0.00650683       0.00185700       0.00179900      -0.00399600      48.52378082     125.36771393     -96.49151611
Li       1.18749794       6.50001616       7.20924634       0.00185700       0.00179900      -0.00399600    -157.75468445    -136.17358398      52.49074554
Li      -0.06962849      14.88373581       0.01076887       0.00185700       0.00179900      -0.00399600     225.87664795      73.30628967     -79.54328156
Li       0.72714161      12.77689572       6.73983624       0.00185700       0.00179900      -0.00399600    -350.52926636      39.48581696     202.67855835