416
Lattice="18.814930026475235 0.0 0.0 0.0 18.814930026475235 0.0 0.0 0.0 18.814930026475235" Properties=species:S:1:pos:R:3:DFT_forces:R:3:forces:R:3 label=eos ionic_step=1.0 config=222503 DFT_energy=-1733.2274 DFT_stress="-0.0004000495246145874 -0.0013532964512705803 0.0010184894781559706 -0.000662567385006696 0.001465506386011839 -6.699012010358274e-05" energy=-1731.3193359375 stress="0.021308373659849167 -0.0008161888690665364 -0.0012148057576268911 -0.0008161888690665364 0.02319011278450489 -0.00036191800609230995 -0.0012148057576268911 -0.00036191800609230995 0.027357131242752075" pbc="T T T"
Li       6.31111273       7.57783123       4.55041246      -0.00570600       0.00037700       0.00613900      -0.35648644       0.01019537      -0.29606405
Li       6.31111289       7.57783156      13.95787774      -0.00570600       0.00037700       0.00613900      -0.35648340       0.01019132      -0.29606795
Li       6.31111299      16.98529658       4.55041247      -0.00570600       0.00037700       0.00613900      -0.35648635       0.01019295      -0.29606324
Li       6.31111251      16.98529660      13.95787740      -0.00570600       0.00037700       0.00613900      -0.35648221       0.01018974      -0.29606521
Li      15.71857753       7.57783100       4.55041256      -0.00570600       0.00037700       0.00613900      -0.35648593       0.01019340      -0.29606527
Li      15.71857753       7.57783125      13.95787777      -0.00570600       0.00037700       0.00613900      -0.35648119       0.01019360      -0.29606938
Li      15.71857755      16.98529622       4.55041238      -0.00570600       0.00037700       0.00613900      -0.35648453       0.01019347      -0.29606467
Li      15.71857780      16.98529651      13.95787755      -0.00570600       0.00037700       0.00613900      -0.35648304       0.01019085      -0.29606584
Li       1.65577450       3.02664235       4.43739488       0.00095700      -0.00427500      -0.00468900      -0.27131355       0.11346860      -0.26488990
Li       1.65577431       3.02664239      13.84485997       0.00095700      -0.00427500      -0.00468900      -0.27131253       0.11346851      -0.26488769
Li       1.65577474      12.43410753       4.43739481       0.00095700      -0.00427500      -0.00468900      -0.27131614       0.11346631      -0.26489127
Li       1.65577465      12.43410747      13.84485965       0.00095700      -0.00427500      -0.00468900      -0.27131510       0.11346827      -0.26488802
Li      11.06323950       3.02664255       4.43739535       0.00095700      -0.00427500      -0.00468900      -0.27131563       0.11346650      -0.26489961
Li      11.06323952       3.02664227      13.84486016       0.00095700      -0.00427500      -0.00468900      -0.27131528       0.11346698      -0.26489210
Li      11.06323975      12.43410754       4.43739522       0.00095700      -0.00427500      -0.00468900      -0.27131310       0.11346668      -0.26489690
Li      11.06323967      12.43410747      13.84485981       0.00095700      -0.00427500      -0.00468900      -0.27131712       0.11346661      -0.26488966
Li       5.84991982       5.91313208       8.46713446      -0.00148300      -0.00335200      -0.00655700       0.17959264       0.02376819      -0.40497503
Li       5.84991969       5.91313138      17.87459960      -0.00148300      -0.00335200      -0.00655700       0.17960322       0.02377820      -0.40498614
Li       5.84991992      15.32059711       8.46713460      -0.00148300      -0.00335200      -0.00655700       0.17959571       0.02376693      -0.40498126
Li       5.84991926      15.32059668      17.87459953      -0.00148300      -0.00335200      -0.00655700       0.17960370       0.02377886      -0.40498683
Li      15.25738427       5.91313230       8.46713383      -0.00148300      -0.00335200      -0.00655700       0.17959315       0.02376670      -0.40497258
Li      15.25738406       5.91313166      17.87459916      -0.00148300      -0.00335200      -0.00655700       0.17960620       0.02377841      -0.40498689
Li      15.25738419      15.32059748       8.46713398      -0.00148300      -0.00335200      -0.00655700       0.17959586       0.02376810      -0.40497854
Li      15.25738365      15.32059685      17.87459899      -0.00148300      -0.00335200      -0.00655700       0.17960802       0.02377823      -0.40498671
Li       2.89650709       2.81552405       0.19241651      -0.00138400       0.00561200      -0.00034400      -0.12802872      -0.16136745      -0.44686145
Li       2.89650679       2.81552353       9.59988104      -0.00138400       0.00561200      -0.00034400      -0.12803322      -0.16136046      -0.44685265
Li       2.89650689      12.22298888       0.19241647      -0.00138400       0.00561200      -0.00034400      -0.12802646      -0.16136570      -0.44685936
Li       2.89650683      12.22298846       9.59988097      -0.00138400       0.00561200      -0.00034400      -0.12803149      -0.16136165      -0.44685307
Li      12.30397179       2.81552385       0.19241666      -0.00138400       0.00561200      -0.00034400      -0.12802942      -0.16136742      -0.44686294
Li      12.30397182       2.81552373       9.59988123      -0.00138400       0.00561200      -0.00034400      -0.12803310      -0.16136160      -0.44685540
Li      12.30397196      12.22298886       0.19241673      -0.00138400       0.00561200      -0.00034400      -0.12802862      -0.16136681      -0.44686106
Li      12.30397181      12.22298890       9.59988130      -0.00138400       0.00561200      -0.00034400      -0.12803321      -0.16136402      -0.44685751
Li       5.13763316       6.35565899       1.82193134      -0.00016300       0.00090400      -0.00170100       0.43892214      -0.15328927      -0.18272464
Li       5.13763300       6.35565916      11.22939633      -0.00016300       0.00090400      -0.00170100       0.43892145      -0.15329280      -0.18272005
Li       5.13763315      15.76312424       1.82193121      -0.00016300       0.00090400      -0.00170100       0.43891770      -0.15329365      -0.18272221
Li       5.13763297      15.76312423      11.22939609      -0.00016300       0.00090400      -0.00170100       0.43891823      -0.15329038      -0.18271795
Li      14.54509812       6.35565939       1.82193135      -0.00016300       0.00090400      -0.00170100       0.43892550      -0.15329240      -0.18272570
Li      14.54509803       6.35565895      11.22939638      -0.00016300       0.00090400      -0.00170100       0.43892205      -0.15328822      -0.18272118
Li      14.54509790      15.76312425       1.82193123      -0.00016300       0.00090400      -0.00170100       0.43892437      -0.15329364      -0.18272316
Li      14.54509803      15.76312389      11.22939645      -0.00016300       0.00090400      -0.00170100       0.43891934      -0.15328698      -0.18271916
Li       4.67247579       3.17728417       2.07404086      -0.00164200      -0.00005200       0.00064700       0.52037561      -0.27602276       0.09378196
Li       4.67247536       3.17728402      11.48150548      -0.00164200      -0.00005200       0.00064700       0.52038074      -0.27602297       0.09378506
Li       4.67247551      12.58474912       2.07404116      -0.00164200      -0.00005200       0.00064700       0.52037871      -0.27602249       0.09378088
Li       4.67247542      12.58474906      11.48150577      -0.00164200      -0.00005200       0.00064700       0.52037889      -0.27602762       0.09378345
Li      14.07994121       3.17728465       2.07404041      -0.00164200      -0.00005200       0.00064700       0.52037174      -0.27602577       0.09378636
Li      14.07994090       3.17728425      11.48150515      -0.00164200      -0.00005200       0.00064700       0.52037704      -0.27602759       0.09378971
Li      14.07994110      12.58474953       2.07404031      -0.00164200      -0.00005200       0.00064700       0.52037674      -0.27602452       0.09378702
Li      14.07994058      12.58474890      11.48150508      -0.00164200      -0.00005200       0.00064700       0.52038026      -0.27602732       0.09379010
Li       7.75701481       8.95972847       1.29077459      -0.00284200      -0.00375900      -0.00212200      -0.49442858      -0.19385852       0.37042880
Li       7.75701498       8.95972831      10.69823940      -0.00284200      -0.00375900      -0.00212200      -0.49442998      -0.19385801       0.37042829
Li       7.75701486      18.36719327       1.29077450      -0.00284200      -0.00375900      -0.00212200      -0.49443233      -0.19385800       0.37042841
Li       7.75701485      18.36719314      10.69823917      -0.00284200      -0.00375900      -0.00212200      -0.49443221      -0.19385821       0.37042838
Li      17.16448005       8.95972803       1.29077466      -0.00284200      -0.00375900      -0.00212200      -0.49443039      -0.19385876       0.37042609
Li      17.16448023       8.95972807      10.69823958      -0.00284200      -0.00375900      -0.00212200      -0.49443087      -0.19385642       0.37042630
Li      17.16447979      18.36719297       1.29077449      -0.00284200      -0.00375900      -0.00212200      -0.49443024      -0.19385765       0.37042457
Li      17.16447986      18.36719316      10.69823919      -0.00284200      -0.00375900      -0.00212200      -0.49442965      -0.19385746       0.37042576
Li       2.60624962       4.70114829       2.06668638       0.00289800      -0.00427900       0.00060100      -0.17604956       0.34147099       0.23223105
Li       2.60624990       4.70114858      11.47415139       0.00289800      -0.00427900       0.00060100      -0.17604795       0.34147370       0.23223376
Li       2.60624968      14.10861339       2.06668642       0.00289800      -0.00427900       0.00060100      -0.17605153       0.34147418       0.23222759
Li       2.60624991      14.10861371      11.47415141       0.00289800      -0.00427900       0.00060100      -0.17604703       0.34146988       0.23223242
Li      12.01371494       4.70114851       2.06668656       0.00289800      -0.00427900       0.00060100      -0.17605716       0.34147117       0.23222573
Li      12.01371543       4.70114839      11.47415119       0.00289800      -0.00427900       0.00060100      -0.17605244       0.34147418       0.23222855
Li      12.01371512      14.10861351       2.06668622       0.00289800      -0.00427900       0.00060100      -0.17605287       0.34147504       0.23222804
Li      12.01371519      14.10861380      11.47415135       0.00289800      -0.00427900       0.00060100      -0.17605254       0.34147498       0.23223186
Li       3.23433440       0.51219886       3.27127720      -0.00149300       0.00400600      -0.00191400       0.51568013      -0.03096005       0.04525720
Li       3.23433408       0.51219890      12.67874228      -0.00149300       0.00400600      -0.00191400       0.51567823      -0.03095892       0.04525815
Li       3.23433411       9.91966408       3.27127710      -0.00149300       0.00400600      -0.00191400       0.51567924      -0.03095788       0.04525775
Li       3.23433408       9.91966393      12.67874199      -0.00149300       0.00400600      -0.00191400       0.51567823      -0.03095838       0.04525929
Li      12.64179931       0.51219856       3.27127751      -0.00149300       0.00400600      -0.00191400       0.51567364      -0.03095049       0.04525432
Li      12.64179912       0.51219857      12.67874232      -0.00149300       0.00400600      -0.00191400       0.51567674      -0.03095534       0.04525819
Li      12.64179936       9.91966374       3.27127730      -0.00149300       0.00400600      -0.00191400       0.51567388      -0.03095365       0.04525746
Li      12.64179885       9.91966354      12.67874242      -0.00149300       0.00400600      -0.00191400       0.51567441      -0.03095287       0.04525934
Li       7.74298560       4.69382409       2.97856939       0.00487600      -0.00667400       0.00163400       0.19139482       0.39405423      -0.14389758
Li       7.74298555       4.69382394      12.38603478       0.00487600      -0.00667400       0.00163400       0.19138987       0.39405259      -0.14389724
Li       7.74298588      14.10128911       2.97856945       0.00487600      -0.00667400       0.00163400       0.19139040       0.39405566      -0.14389420
Li       7.74298558      14.10128899      12.38603490       0.00487600      -0.00667400       0.00163400       0.19139227       0.39405423      -0.14389530
Li      17.15045118       4.69382398       2.97856927       0.00487600      -0.00667400       0.00163400       0.19139293       0.39405540      -0.14389722
Li      17.15045048       4.69382372      12.38603452       0.00487600      -0.00667400       0.00163400       0.19139391       0.39405400      -0.14389873
Li      17.15045098      14.10128910       2.97856960       0.00487600      -0.00667400       0.00163400       0.19139087       0.39405292      -0.14389922
Li      17.15045094      14.10128886      12.38603492       0.00487600      -0.00667400       0.00163400       0.19139078       0.39405048      -0.14389956
Li       6.18268827       1.14742641       3.83264142       0.00211600      -0.00326400       0.00203100      -0.49763805       0.32171679      -0.21660569
Li       6.18268812       1.14742642      13.24010687       0.00211600      -0.00326400       0.00203100      -0.49763384       0.32171708      -0.21660727
Li       6.18268786      10.55489120       3.83264126       0.00211600      -0.00326400       0.00203100      -0.49763441       0.32171825      -0.21660691
Li       6.18268796      10.55489142      13.24010653       0.00211600      -0.00326400       0.00203100      -0.49763176       0.32171667      -0.21661025
Li      15.59015281       1.14742618       3.83264118       0.00211600      -0.00326400       0.00203100      -0.49763644       0.32171384      -0.21660280
Li      15.59015261       1.14742613      13.24010654       0.00211600      -0.00326400       0.00203100      -0.49763235       0.32171658      -0.21660939
Li      15.59015235      10.55489107       3.83264102       0.00211600      -0.00326400       0.00203100      -0.49762946       0.32171863      -0.21660560
Li      15.59015248      10.55489105      13.24010680       0.00211600      -0.00326400       0.00203100      -0.49762762       0.32172003      -0.21661380
Li       3.08585983       7.58471359       5.15644763       0.00399500      -0.00154200      -0.00104600       0.27372968       0.18858729      -0.07762349
Li       3.08586001       7.58471338      14.56391235       0.00399500      -0.00154200      -0.00104600       0.27372861       0.18859176      -0.07762414
Li       3.08585991      16.99217879       5.15644756       0.00399500      -0.00154200      -0.00104600       0.27372825       0.18858577      -0.07761979
Li       3.08586011      16.99217823      14.56391201       0.00399500      -0.00154200      -0.00104600       0.27372503       0.18859380      -0.07761621
Li      12.49332540       7.58471366       5.15644723       0.00399500      -0.00154200      -0.00104600       0.27372611       0.18858643      -0.07762116
Li      12.49332538       7.58471338      14.56391204       0.00399500      -0.00154200      -0.00104600       0.27372611       0.18859205      -0.07762283
Li      12.49332542      16.99217868       5.15644710       0.00399500      -0.00154200      -0.00104600       0.27372575       0.18858814      -0.07761627
Li      12.49332514      16.99217857      14.56391178       0.00399500      -0.00154200      -0.00104600       0.27372915       0.18859160      -0.07761317
Li       7.64668081       4.29336223       6.17291662       0.00180600      -0.00258200      -0.00395500       0.07266186      -0.22014350       0.11619531
Li       7.64668183       4.29336247      15.58038218       0.00180600      -0.00258200      -0.00395500       0.07265612      -0.22014114       0.11619599
Li       7.64668107      13.70082749       6.17291704       0.00180600      -0.00258200      -0.00395500       0.07266116      -0.22014463       0.11619641
Li       7.64668196      13.70082781      15.58038244       0.00180600      -0.00258200      -0.00395500       0.07265792      -0.22014415       0.11619559
Li      17.05414590       4.29336160       6.17291688       0.00180600      -0.00258200      -0.00395500       0.07266633      -0.22013912       0.11619447
Li      17.05414665       4.29336180      15.58038248       0.00180600      -0.00258200      -0.00395500       0.07265893      -0.22013700       0.11619493
Li      17.05414625      13.70082690       6.17291765       0.00180600      -0.00258200      -0.00395500       0.07266187      -0.22014083       0.11619446
Li      17.05414701      13.70082708      15.58038302       0.00180600      -0.00258200      -0.00395500       0.07265965      -0.22013900       0.11619392
Li       3.10932342       4.98072333       7.66485512      -0.00119200       0.00505800       0.00110300       0.26527792      -0.03734297       0.04434957
Li       3.10932400       4.98072319      17.07232001      -0.00119200       0.00505800       0.00110300       0.26526895      -0.03733197       0.04435389
Li       3.10932378      14.38818819       7.66485502      -0.00119200       0.00505800       0.00110300       0.26527512      -0.03733909       0.04435287
Li       3.10932405      14.38818829      17.07231982      -0.00119200       0.00505800       0.00110300       0.26527214      -0.03733492       0.04435599
Li      12.51678828       4.98072277       7.66485498      -0.00119200       0.00505800       0.00110300       0.26527631      -0.03733879       0.04435313
Li      12.51678857       4.98072274      17.07232004      -0.00119200       0.00505800       0.00110300       0.26527137      -0.03733292       0.04434881
Li      12.51678851      14.38818771       7.66485498      -0.00119200       0.00505800       0.00110300       0.26527217      -0.03733030       0.04435505
Li      12.51678858      14.38818781      17.07232024      -0.00119200       0.00505800       0.00110300       0.26526889      -0.03733003       0.04435281
Li       6.68548498      -0.00697992       6.63752293       0.00134300       0.00036300       0.00127900       0.18659121       0.40427390      -0.25099030
Li       6.68548500      -0.00697975      16.04498820       0.00134300       0.00036300       0.00127900       0.18659657       0.40427780      -0.25099516
Li       6.68548500       9.40048510       6.63752285       0.00134300       0.00036300       0.00127900       0.18659677       0.40427247      -0.25099036
Li       6.68548512       9.40048511      16.04498811       0.00134300       0.00036300       0.00127900       0.18659343       0.40427527      -0.25099087
Li      16.09295004      -0.00697983       6.63752294       0.00134300       0.00036300       0.00127900       0.18659964       0.40427244      -0.25099364
Li      16.09295010      -0.00697969      16.04498837       0.00134300       0.00036300       0.00127900       0.18659936       0.40427250      -0.25099608
Li      16.09295037       9.40048518       6.63752313       0.00134300       0.00036300       0.00127900       0.18659586       0.40427452      -0.25099486
Li      16.09295020       9.40048515      16.04498829       0.00134300       0.00036300       0.00127900       0.18659973       0.40427241      -0.25099820
Li       1.73932828       9.13801374       7.74955953       0.00010700      -0.00503700       0.00259400      -0.31563416       0.32656774      -0.11892191
Li       1.73932822       9.13801421      17.15702486       0.00010700      -0.00503700       0.00259400      -0.31563359       0.32656091      -0.11892255
Li       1.73932829      18.54547897       7.74955985       0.00010700      -0.00503700       0.00259400      -0.31563282       0.32656562      -0.11891875
Li       1.73932856      18.54547933      17.15702517       0.00010700      -0.00503700       0.00259400      -0.31563318       0.32655653      -0.11892245
Li      11.14679259       9.13801414       7.74956027       0.00010700      -0.00503700       0.00259400      -0.31562573       0.32655481      -0.11892582
Li      11.14679274       9.13801419      17.15702501       0.00010700      -0.00503700       0.00259400      -0.31562835       0.32655764      -0.11892340
Li      11.14679254      18.54547905       7.74956000       0.00010700      -0.00503700       0.00259400      -0.31562865       0.32655603      -0.11892445
Li      11.14679276      18.54547922      17.15702528       0.00010700      -0.00503700       0.00259400      -0.31562775       0.32655820      -0.11892169
Li       4.32421151       8.37149072       7.20144408      -0.00703800       0.00249700      -0.00063200       0.42934030       0.03419897       0.00841776
Li       4.32421151       8.37149093      16.60890907      -0.00703800       0.00249700      -0.00063200       0.42934033       0.03419988       0.00841837
Li       4.32421143      17.77895592       7.20144430      -0.00703800       0.00249700      -0.00063200       0.42933613       0.03419977       0.00841441
Li       4.32421180      17.77895583      16.60890915      -0.00703800       0.00249700      -0.00063200       0.42933607       0.03420152       0.00841529
Li      13.73167671       8.37149055       7.20144393      -0.00703800       0.00249700      -0.00063200       0.42933938       0.03420548       0.00841496
Li      13.73167709       8.37149061      16.60890923      -0.00703800       0.00249700      -0.00063200       0.42933840       0.03420554       0.00841312
Li      13.73167696      17.77895545       7.20144415      -0.00703800       0.00249700      -0.00063200       0.42933565       0.03420375       0.00841708
Li      13.73167704      17.77895555      16.60890946      -0.00703800       0.00249700      -0.00063200       0.42933732       0.03420512       0.00841047
Li       4.74604532       1.77667676       6.36587714      -0.00252500       0.00403200      -0.00153800       0.84209621       0.12401271      -0.03170228
Li       4.74604573       1.77667640      15.77334216      -0.00252500       0.00403200      -0.00153800       0.84209031       0.12402070      -0.03170258
Li       4.74604564      11.18414165       6.36587696      -0.00252500       0.00403200      -0.00153800       0.84209114       0.12401706      -0.03169934
Li       4.74604588      11.18414144      15.77334186      -0.00252500       0.00403200      -0.00153800       0.84208441       0.12402624      -0.03170016
Li      14.15351079       1.77667653       6.36587727      -0.00252500       0.00403200      -0.00153800       0.84209257       0.12401384      -0.03170065
Li      14.15351108       1.77667655      15.77334227      -0.00252500       0.00403200      -0.00153800       0.84208989       0.12401932      -0.03170437
Li      14.15351092      11.18414152       6.36587699      -0.00252500       0.00403200      -0.00153800       0.84209114       0.12401819      -0.03169981
Li      14.15351109      11.18414147      15.77334219      -0.00252500       0.00403200      -0.00153800       0.84208941       0.12402463      -0.03170286
Li       6.16367893       3.02842657       9.13074544      -0.00079400       0.00235800       0.00083600      -0.31988007       0.38961610      -0.29895627
Li       6.16367894       3.02842656      18.53821045      -0.00079400       0.00235800       0.00083600      -0.31987804       0.38961542      -0.29895508
Li       6.16367881      12.43589155       9.13074544      -0.00079400       0.00235800       0.00083600      -0.31987774       0.38961476      -0.29895666
Li       6.16367915      12.43589176      18.53821068      -0.00079400       0.00235800       0.00083600      -0.31987995       0.38961366      -0.29895383
Li      15.57114397       3.02842681       9.13074507      -0.00079400       0.00235800       0.00083600      -0.31988138       0.38961610      -0.29894960
Li      15.57114397       3.02842681      18.53821020      -0.00079400       0.00235800       0.00083600      -0.31987786       0.38961387      -0.29895377
Li      15.57114398      12.43589152       9.13074529      -0.00079400       0.00235800       0.00083600      -0.31987792       0.38961735      -0.29895627
Li      15.57114408      12.43589160      18.53821025      -0.00079400       0.00235800       0.00083600      -0.31987879       0.38961250      -0.29895329
Li       9.34492661       6.70425116       3.33672022       0.00040300      -0.00135500       0.00522500      -0.49417543      -0.23139167       0.03217576
Li       9.34492647       6.70425099      12.74418531       0.00040300      -0.00135500       0.00522500      -0.49417138      -0.23139091       0.03217680
Li       9.34492627      16.11171624       3.33672045       0.00040300      -0.00135500       0.00522500      -0.49417681      -0.23138773       0.03217535
Li       9.34492639      16.11171613      12.74418540       0.00040300      -0.00135500       0.00522500      -0.49417734      -0.23139003       0.03217331
Li      -0.06253855       6.70425108       3.33672051       0.00040300      -0.00135500       0.00522500      -0.49417299      -0.23138562       0.03217768
Li      -0.06253857       6.70425113      12.74418612       0.00040300      -0.00135500       0.00522500      -0.49417377      -0.23138991       0.03217374
Li      -0.06253836      16.11171614       3.33672052       0.00040300      -0.00135500       0.00522500      -0.49417779      -0.23139015       0.03217427
Li      -0.06253855      16.11171602      12.74418583       0.00040300      -0.00135500       0.00522500      -0.49417239      -0.23138829       0.03217500
Li       0.51173046       1.81009142       1.72888557       0.00606900      -0.00070200      -0.00004800      -0.17637095      -0.03934114      -0.34952259
Li       0.51173044       1.81009106      11.13635055       0.00606900      -0.00070200      -0.00004800      -0.17637148      -0.03934206      -0.34952027
Li       0.51173032      11.21755661       1.72888546       0.00606900      -0.00070200      -0.00004800      -0.17637342      -0.03934272      -0.34951857
Li       0.51173025      11.21755694      11.13635041       0.00606900      -0.00070200      -0.00004800      -0.17637426      -0.03934489      -0.34952188
Li       9.91919597       1.81009127       1.72888542       0.00606900      -0.00070200      -0.00004800      -0.17637801      -0.03934240      -0.34952009
Li       9.91919578       1.81009107      11.13635074       0.00606900      -0.00070200      -0.00004800      -0.17638129      -0.03934467      -0.34952173
Li       9.91919572      11.21755651       1.72888564       0.00606900      -0.00070200      -0.00004800      -0.17637932      -0.03934199      -0.34952193
Li       9.91919547      11.21755662      11.13635092       0.00606900      -0.00070200      -0.00004800      -0.17638013      -0.03934382      -0.34952199
Li       0.48426758       6.37767275       6.60630793       0.00290200      -0.00004300       0.00186200       0.16077986      -0.38012302      -0.24162602
Li       0.48426773       6.37767284      16.01377290       0.00290200      -0.00004300       0.00186200       0.16078198      -0.38012451      -0.24162345
Li       0.48426729      15.78513792       6.60630779       0.00290200      -0.00004300       0.00186200       0.16078171      -0.38012448      -0.24162282
Li       0.48426787      15.78513758      16.01377302       0.00290200      -0.00004300       0.00186200       0.16078275      -0.38012138      -0.24162176
Li       9.89173250       6.37767274       6.60630800       0.00290200      -0.00004300       0.00186200       0.16078362      -0.38011962      -0.24162316
Li       9.89173260       6.37767277      16.01377317       0.00290200      -0.00004300       0.00186200       0.16078705      -0.38011587      -0.24162608
Li       9.89173251      15.78513801       6.60630802       0.00290200      -0.00004300       0.00186200       0.16078448      -0.38012004      -0.24162281
Li       9.89173248      15.78513776      16.01377311       0.00290200      -0.00004300       0.00186200       0.16079143      -0.38011634      -0.24162382
Li       9.03125047       1.83815092       7.88656249      -0.00431400       0.00443800       0.00566700      -0.25665823       0.15414277      -0.03486952
Li       9.03125045       1.83815076      17.29402822      -0.00431400       0.00443800       0.00566700      -0.25665700       0.15414508      -0.03486995
Li       9.03125064      11.24561587       7.88656257      -0.00431400       0.00443800       0.00566700      -0.25665841       0.15414403      -0.03487083
Li       9.03125086      11.24561616      17.29402797      -0.00431400       0.00443800       0.00566700      -0.25665659       0.15414363      -0.03486741
Li      18.43871603       1.83815066       7.88656279      -0.00431400       0.00443800       0.00566700      -0.25666010       0.15414566      -0.03486961
Li      18.43871619       1.83815059      17.29402804      -0.00431400       0.00443800       0.00566700      -0.25665829       0.15414551      -0.03486993
Li      18.43871618      11.24561595       7.88656232      -0.00431400       0.00443800       0.00566700      -0.25666028       0.15414134      -0.03487042
Li      18.43871623      11.24561593      17.29402826      -0.00431400       0.00443800       0.00566700      -0.25665987       0.15414557      -0.03486949
Li       2.78576274       6.72716626       0.06645931       0.00185700       0.00179900      -0.00399600       0.33891574       0.16611516      -0.05828092
Li       2.78576257       6.72716654       9.47392344       0.00185700       0.00179900      -0.00399600       0.33892003       0.16611747      -0.05826125
Li       2.78576279      16.13463135       0.06645930       0.00185700       0.00179900      -0.00399600       0.33891535       0.16611324      -0.05828011
Li       2.78576238      16.13463167       9.47392393       0.00185700       0.00179900      -0.00399600       0.33891845       0.16611592      -0.05826709